 Entering Gaussian System, Link 0=g16
 Input=jz4.gjf
 Output=jz4.log
 Initial command:
 /home/cheng/Software/g16-avx2/g16/l1.exe "/home/cheng/tmp/Gau-25934.inp" -scrdir="/home/cheng/tmp/"
 Entering Link 1 = /home/cheng/Software/g16-avx2/g16/l1.exe PID=     25936.
  
 Copyright (c) 1988-2019, Gaussian, Inc.  All Rights Reserved.
  
 This is part of the Gaussian(R) 16 program.  It is based on
 the Gaussian(R) 09 system (copyright 2009, Gaussian, Inc.),
 the Gaussian(R) 03 system (copyright 2003, Gaussian, Inc.),
 the Gaussian(R) 98 system (copyright 1998, Gaussian, Inc.),
 the Gaussian(R) 94 system (copyright 1995, Gaussian, Inc.),
 the Gaussian 92(TM) system (copyright 1992, Gaussian, Inc.),
 the Gaussian 90(TM) system (copyright 1990, Gaussian, Inc.),
 the Gaussian 88(TM) system (copyright 1988, Gaussian, Inc.),
 the Gaussian 86(TM) system (copyright 1986, Carnegie Mellon
 University), and the Gaussian 82(TM) system (copyright 1983,
 Carnegie Mellon University). Gaussian is a federally registered
 trademark of Gaussian, Inc.
  
 This software contains proprietary and confidential information,
 including trade secrets, belonging to Gaussian, Inc.
  
 This software is provided under written license and may be
 used, copied, transmitted, or stored only in accord with that
 written license.
  
 The following legend is applicable only to US Government
 contracts under FAR:
  
                    RESTRICTED RIGHTS LEGEND
  
 Use, reproduction and disclosure by the US Government is
 subject to restrictions as set forth in subparagraphs (a)
 and (c) of the Commercial Computer Software - Restricted
 Rights clause in FAR 52.227-19.
  
 Gaussian, Inc.
 340 Quinnipiac St., Bldg. 40, Wallingford CT 06492
  
  
 ---------------------------------------------------------------
 Warning -- This program may not be used in any manner that
 competes with the business of Gaussian, Inc. or will provide
 assistance to any competitor of Gaussian, Inc.  The licensee
 of this program is prohibited from giving any competitor of
 Gaussian, Inc. access to this program.  By using this program,
 the user acknowledges that Gaussian, Inc. is engaged in the
 business of creating and licensing software in the field of
 computational chemistry and represents and warrants to the
 licensee that it is not a competitor of Gaussian, Inc. and that
 it will not use this program in any manner prohibited above.
 ---------------------------------------------------------------
  

 Cite this work as:
 Gaussian 16, Revision C.01,
 M. J. Frisch, G. W. Trucks, H. B. Schlegel, G. E. Scuseria, 
 M. A. Robb, J. R. Cheeseman, G. Scalmani, V. Barone, 
 G. A. Petersson, H. Nakatsuji, X. Li, M. Caricato, A. V. Marenich, 
 J. Bloino, B. G. Janesko, R. Gomperts, B. Mennucci, H. P. Hratchian, 
 J. V. Ortiz, A. F. Izmaylov, J. L. Sonnenberg, D. Williams-Young, 
 F. Ding, F. Lipparini, F. Egidi, J. Goings, B. Peng, A. Petrone, 
 T. Henderson, D. Ranasinghe, V. G. Zakrzewski, J. Gao, N. Rega, 
 G. Zheng, W. Liang, M. Hada, M. Ehara, K. Toyota, R. Fukuda, 
 J. Hasegawa, M. Ishida, T. Nakajima, Y. Honda, O. Kitao, H. Nakai, 
 T. Vreven, K. Throssell, J. A. Montgomery, Jr., J. E. Peralta, 
 F. Ogliaro, M. J. Bearpark, J. J. Heyd, E. N. Brothers, K. N. Kudin, 
 V. N. Staroverov, T. A. Keith, R. Kobayashi, J. Normand, 
 K. Raghavachari, A. P. Rendell, J. C. Burant, S. S. Iyengar, 
 J. Tomasi, M. Cossi, J. M. Millam, M. Klene, C. Adamo, R. Cammi, 
 J. W. Ochterski, R. L. Martin, K. Morokuma, O. Farkas, 
 J. B. Foresman, and D. J. Fox, Gaussian, Inc., Wallingford CT, 2019.
 
 ******************************************
 Gaussian 16:  ES64L-G16RevC.01  3-Jul-2019
                28-Aug-2021 
 ******************************************
 %nprocshared=6
 Will use up to    6 processors via shared memory.
 %mem=10GB
 %chk=jz4.chk
 ----------------------------------------------------------------------
 # opt b3lyp/6-31g(d) scrf=(smd,solvent=water) nosymm pop=mk geom=conne
 ctivity iop(6/33=2,6/42=6)
 ----------------------------------------------------------------------
 1/18=20,19=15,26=3,38=1,57=2/1,3;
 2/9=110,12=2,15=1,17=6,18=5,40=1/2;
 3/5=1,6=6,7=1,11=2,25=1,30=1,70=32201,71=1,72=1,74=-5/1,2,3;
 4//1;
 5/5=2,38=5,53=1/2;
 6/7=2,8=2,9=2,10=2,15=8,20=1,28=1,33=2,42=6/1,2;
 7/30=1/1,2,3,16;
 1/18=20,19=15,26=3/3(2);
 2/9=110,15=1/2;
 99//99;
 2/9=110,15=1/2;
 3/5=1,6=6,7=1,11=2,25=1,30=1,70=32205,71=1,72=1,74=-5/1,2,3;
 4/5=5,16=3,69=1/1;
 5/5=2,38=5,53=1/2;
 7/30=1/1,2,3,16;
 1/18=20,19=15,26=3/3(-5);
 2/9=110,15=1/2;
 6/7=2,8=2,9=2,10=2,15=8,19=2,20=1,28=1,33=2,42=6/1,2;
 99/9=1/99;
 -------------------
 Title Card Required
 -------------------
 Symbolic Z-matrix:
 Charge =  0 Multiplicity = 1
 C(PDBName=C4,ResName=JZ4,ResNum=167_A)  24.294   -24.124   -0.071 
 C(PDBName=C7,ResName=JZ4,ResNum=167_A)  21.553   -27.214   -4.112 
 C(PDBName=C8,ResName=JZ4,ResNum=167_A)  22.068   -26.747   -5.331 
 C(PDBName=C9,ResName=JZ4,ResNum=167_A)  22.671   -25.512   -5.448 
 C(PDBName=C10,ResName=JZ4,ResNum=167_A)  22.769   -24.73    -4.295 
 C(PDBName=C11,ResName=JZ4,ResNum=167_A)  21.693   -26.459   -2.954 
 C(PDBName=C12,ResName=JZ4,ResNum=167_A)  22.294   -25.187   -3.075 
 C(PDBName=C13,ResName=JZ4,ResNum=167_A)  22.463   -24.414   -1.808 
 C(PDBName=C14,ResName=JZ4,ResNum=167_A)  23.925   -24.704   -1.394 
 O(PDBName=OAB,ResName=JZ4,ResNum=167_A)  23.412   -23.536   -4.342 
 H(PDBName=1H4,ResName=JZ4,ResNum=167_A)  25.19705  -24.57916   0.27861 
 H(PDBName=2H4,ResName=JZ4,ResNum=167_A)  24.44245  -23.06925  -0.17286 
 H(PDBName=3H4,ResName=JZ4,ResNum=167_A)  23.50732  -24.30734   0.63073 
 H(PDBName=H7,ResName=JZ4,ResNum=167_A)  21.0494  -28.15732  -4.07406 
 H(PDBName=H8,ResName=JZ4,ResNum=167_A)  21.99037  -27.36926  -6.19799 
 H(PDBName=H9,ResName=JZ4,ResNum=167_A)  23.04957  -25.16599  -6.38708 
 H(PDBName=H11,ResName=JZ4,ResNum=167_A)  21.35821  -26.82736  -2.00683 
 H(PDBName=1H13,ResName=JZ4,ResNum=167_A)  21.81895  -24.84442  -1.06987 
 H(PDBName=2H13,ResName=JZ4,ResNum=167_A)  22.38646  -23.373   -2.04329 
 H(PDBName=1H14,ResName=JZ4,ResNum=167_A)  23.99201  -25.76557  -1.27795 
 H(PDBName=2H14,ResName=JZ4,ResNum=167_A)  24.53853  -24.2048  -2.11462 
 H(PDBName=HAB,ResName=JZ4,ResNum=167_A)  23.54567  -23.20917  -3.4493 
 
 Center=     22.90990845    -25.15907539     -2.75975007
 Residue   1 PDB Number   167_A JZ4 charge    0.00000000 layers R        AvRTP=      0.00000000     88.71510925     86.87161125

 GradGradGradGradGradGradGradGradGradGradGradGradGradGradGradGradGradGrad
 Berny optimization.
 Initialization pass.
                           ----------------------------
                           !    Initial Parameters    !
                           ! (Angstroms and Degrees)  !
 --------------------------                            --------------------------
 ! Name  Definition              Value          Derivative Info.                !
 --------------------------------------------------------------------------------
 ! R1    R(1,9)                  1.4909         estimate D2E/DX2                !
 ! R2    R(1,11)                 1.07           estimate D2E/DX2                !
 ! R3    R(1,12)                 1.07           estimate D2E/DX2                !
 ! R4    R(1,13)                 1.07           estimate D2E/DX2                !
 ! R5    R(2,3)                  1.4033         estimate D2E/DX2                !
 ! R6    R(2,6)                  1.3895         estimate D2E/DX2                !
 ! R7    R(2,14)                 1.07           estimate D2E/DX2                !
 ! R8    R(3,4)                  1.3793         estimate D2E/DX2                !
 ! R9    R(3,15)                 1.07           estimate D2E/DX2                !
 ! R10   R(4,5)                  1.3966         estimate D2E/DX2                !
 ! R11   R(4,16)                 1.07           estimate D2E/DX2                !
 ! R12   R(5,7)                  1.3867         estimate D2E/DX2                !
 ! R13   R(5,10)                 1.3569         estimate D2E/DX2                !
 ! R14   R(6,7)                  1.412          estimate D2E/DX2                !
 ! R15   R(6,17)                 1.07           estimate D2E/DX2                !
 ! R16   R(7,8)                  1.4938         estimate D2E/DX2                !
 ! R17   R(8,9)                  1.5469         estimate D2E/DX2                !
 ! R18   R(8,18)                 1.07           estimate D2E/DX2                !
 ! R19   R(8,19)                 1.07           estimate D2E/DX2                !
 ! R20   R(9,20)                 1.07           estimate D2E/DX2                !
 ! R21   R(9,21)                 1.07           estimate D2E/DX2                !
 ! R22   R(10,22)                0.96           estimate D2E/DX2                !
 ! A1    A(9,1,11)             109.4712         estimate D2E/DX2                !
 ! A2    A(9,1,12)             109.4712         estimate D2E/DX2                !
 ! A3    A(9,1,13)             109.4712         estimate D2E/DX2                !
 ! A4    A(11,1,12)            109.4712         estimate D2E/DX2                !
 ! A5    A(11,1,13)            109.4712         estimate D2E/DX2                !
 ! A6    A(12,1,13)            109.4712         estimate D2E/DX2                !
 ! A7    A(3,2,6)              120.408          estimate D2E/DX2                !
 ! A8    A(3,2,14)             119.796          estimate D2E/DX2                !
 ! A9    A(6,2,14)             119.796          estimate D2E/DX2                !
 ! A10   A(2,3,4)              122.1466         estimate D2E/DX2                !
 ! A11   A(2,3,15)             118.9267         estimate D2E/DX2                !
 ! A12   A(4,3,15)             118.9267         estimate D2E/DX2                !
 ! A13   A(3,4,5)              117.5154         estimate D2E/DX2                !
 ! A14   A(3,4,16)             121.2423         estimate D2E/DX2                !
 ! A15   A(5,4,16)             121.2423         estimate D2E/DX2                !
 ! A16   A(4,5,7)              121.1826         estimate D2E/DX2                !
 ! A17   A(4,5,10)             119.8244         estimate D2E/DX2                !
 ! A18   A(7,5,10)             118.8673         estimate D2E/DX2                !
 ! A19   A(2,6,7)              117.4491         estimate D2E/DX2                !
 ! A20   A(2,6,17)             121.2755         estimate D2E/DX2                !
 ! A21   A(7,6,17)             121.2755         estimate D2E/DX2                !
 ! A22   A(5,7,6)              121.203          estimate D2E/DX2                !
 ! A23   A(5,7,8)              122.4753         estimate D2E/DX2                !
 ! A24   A(6,7,8)              116.2081         estimate D2E/DX2                !
 ! A25   A(7,8,9)              103.7044         estimate D2E/DX2                !
 ! A26   A(7,8,18)             107.9897         estimate D2E/DX2                !
 ! A27   A(7,8,19)             107.9897         estimate D2E/DX2                !
 ! A28   A(9,8,18)             107.9897         estimate D2E/DX2                !
 ! A29   A(9,8,19)             107.9897         estimate D2E/DX2                !
 ! A30   A(18,8,19)            120.0            estimate D2E/DX2                !
 ! A31   A(1,9,8)              113.4823         estimate D2E/DX2                !
 ! A32   A(1,9,20)             105.915          estimate D2E/DX2                !
 ! A33   A(1,9,21)             105.915          estimate D2E/DX2                !
 ! A34   A(8,9,20)             105.915          estimate D2E/DX2                !
 ! A35   A(8,9,21)             105.915          estimate D2E/DX2                !
 ! A36   A(20,9,21)            120.0            estimate D2E/DX2                !
 ! A37   A(5,10,22)            109.4712         estimate D2E/DX2                !
 ! D1    D(11,1,9,8)           164.1899         estimate D2E/DX2                !
 ! D2    D(11,1,9,20)           48.4195         estimate D2E/DX2                !
 ! D3    D(11,1,9,21)          -80.0398         estimate D2E/DX2                !
 ! D4    D(12,1,9,8)           -75.8101         estimate D2E/DX2                !
 ! D5    D(12,1,9,20)          168.4195         estimate D2E/DX2                !
 ! D6    D(12,1,9,21)           39.9602         estimate D2E/DX2                !
 ! D7    D(13,1,9,8)            44.1899         estimate D2E/DX2                !
 ! D8    D(13,1,9,20)          -71.5805         estimate D2E/DX2                !
 ! D9    D(13,1,9,21)          159.9602         estimate D2E/DX2                !
 ! D10   D(6,2,3,4)             -3.0374         estimate D2E/DX2                !
 ! D11   D(6,2,3,15)           176.9626         estimate D2E/DX2                !
 ! D12   D(14,2,3,4)           176.9626         estimate D2E/DX2                !
 ! D13   D(14,2,3,15)           -3.0374         estimate D2E/DX2                !
 ! D14   D(3,2,6,7)              3.7185         estimate D2E/DX2                !
 ! D15   D(3,2,6,17)          -176.2815         estimate D2E/DX2                !
 ! D16   D(14,2,6,7)          -176.2815         estimate D2E/DX2                !
 ! D17   D(14,2,6,17)            3.7185         estimate D2E/DX2                !
 ! D18   D(2,3,4,5)              0.653          estimate D2E/DX2                !
 ! D19   D(2,3,4,16)          -179.347          estimate D2E/DX2                !
 ! D20   D(15,3,4,5)          -179.347          estimate D2E/DX2                !
 ! D21   D(15,3,4,16)            0.653          estimate D2E/DX2                !
 ! D22   D(3,4,5,7)              0.8697         estimate D2E/DX2                !
 ! D23   D(3,4,5,10)           176.747          estimate D2E/DX2                !
 ! D24   D(16,4,5,7)          -179.1303         estimate D2E/DX2                !
 ! D25   D(16,4,5,10)           -3.253          estimate D2E/DX2                !
 ! D26   D(4,5,7,6)             -0.0518         estimate D2E/DX2                !
 ! D27   D(4,5,7,8)            175.9245         estimate D2E/DX2                !
 ! D28   D(10,5,7,6)          -175.9677         estimate D2E/DX2                !
 ! D29   D(10,5,7,8)             0.0086         estimate D2E/DX2                !
 ! D30   D(4,5,10,22)         -168.7803         estimate D2E/DX2                !
 ! D31   D(7,5,10,22)            7.1923         estimate D2E/DX2                !
 ! D32   D(2,6,7,5)             -2.2463         estimate D2E/DX2                !
 ! D33   D(2,6,7,8)           -178.4631         estimate D2E/DX2                !
 ! D34   D(17,6,7,5)           177.7537         estimate D2E/DX2                !
 ! D35   D(17,6,7,8)             1.5369         estimate D2E/DX2                !
 ! D36   D(5,7,8,9)            -79.191          estimate D2E/DX2                !
 ! D37   D(5,7,8,18)           166.389          estimate D2E/DX2                !
 ! D38   D(5,7,8,19)            35.2289         estimate D2E/DX2                !
 ! D39   D(6,7,8,9)             96.9732         estimate D2E/DX2                !
 ! D40   D(6,7,8,18)           -17.4467         estimate D2E/DX2                !
 ! D41   D(6,7,8,19)          -148.6068         estimate D2E/DX2                !
 ! D42   D(7,8,9,1)           -174.9066         estimate D2E/DX2                !
 ! D43   D(7,8,9,20)           -59.1363         estimate D2E/DX2                !
 ! D44   D(7,8,9,21)            69.323          estimate D2E/DX2                !
 ! D45   D(18,8,9,1)           -60.4867         estimate D2E/DX2                !
 ! D46   D(18,8,9,20)           55.2837         estimate D2E/DX2                !
 ! D47   D(18,8,9,21)         -176.2571         estimate D2E/DX2                !
 ! D48   D(19,8,9,1)            70.6734         estimate D2E/DX2                !
 ! D49   D(19,8,9,20)         -173.5562         estimate D2E/DX2                !
 ! D50   D(19,8,9,21)          -45.097          estimate D2E/DX2                !
 --------------------------------------------------------------------------------
 Trust Radius=3.00D-01 FncErr=1.00D-07 GrdErr=1.00D-06 EigMax=2.50D+02 EigMin=1.00D-04
 Number of steps in this run=    119 maximum allowed number of steps=    132.
 GradGradGradGradGradGradGradGradGradGradGradGradGradGradGradGradGradGrad

                          Input orientation:                          
 ---------------------------------------------------------------------
 Center     Atomic      Atomic             Coordinates (Angstroms)
 Number     Number       Type             X           Y           Z
 ---------------------------------------------------------------------
      1          6           0       24.294000  -24.124000   -0.071000
      2          6           0       21.553000  -27.214000   -4.112000
      3          6           0       22.068000  -26.747000   -5.331000
      4          6           0       22.671000  -25.512000   -5.448000
      5          6           0       22.769000  -24.730000   -4.295000
      6          6           0       21.693000  -26.459000   -2.954000
      7          6           0       22.294000  -25.187000   -3.075000
      8          6           0       22.463000  -24.414000   -1.808000
      9          6           0       23.925000  -24.704000   -1.394000
     10          8           0       23.412000  -23.536000   -4.342000
     11          1           0       25.197052  -24.579160    0.278610
     12          1           0       24.442448  -23.069255   -0.172861
     13          1           0       23.507321  -24.307337    0.630729
     14          1           0       21.049400  -28.157317   -4.074057
     15          1           0       21.990373  -27.369262   -6.197985
     16          1           0       23.049566  -25.165987   -6.387075
     17          1           0       21.358214  -26.827364   -2.006833
     18          1           0       21.818945  -24.844423   -1.069874
     19          1           0       22.386461  -23.373001   -2.043292
     20          1           0       23.992012  -25.765575   -1.277948
     21          1           0       24.538527  -24.204803   -2.114616
     22          1           0       23.545668  -23.209174   -3.449298
 ---------------------------------------------------------------------
                    Distance matrix (angstroms):
                    1          2          3          4          5
     1  C    0.000000
     2  C    5.778483   0.000000
     3  C    6.285126   1.403309   0.000000
     4  C    5.785568   2.435493   1.379320   0.000000
     5  C    4.531560   2.771714   2.373391   1.396616   0.000000
     6  C    4.530907   1.389456   2.423571   2.841360   2.438339
     7  C    3.762178   2.394406   2.752129   2.424641   1.386677
     8  C    2.540439   3.738518   4.243871   3.807685   2.525601
     9  C    1.490936   4.394771   4.808562   4.319756   3.122949
    10  O    4.400581   4.127525   3.618698   2.382623   1.356943
    11  H    1.070000   6.284819   6.779249   6.328127   5.180357
    12  H    1.070000   6.406609   6.765368   6.077180   4.748740
    13  H    1.070000   5.895892   6.600440   6.253126   4.998656
    14  H    6.543664   1.070000   2.146263   3.393377   3.840878
    15  H    7.306051   2.136992   1.070000   2.115456   3.345642
    16  H    6.521285   3.407350   2.139713   1.070000   2.155361
    17  H    4.435591   2.149223   3.400050   3.910911   3.409540
    18  H    2.764535   3.865249   4.673223   4.509949   3.364094
    19  H    2.844757   4.441563   4.721685   4.030920   2.656685
    20  H    2.059779   4.009808   4.592629   4.381633   3.416252
    21  H    2.059779   4.685955   4.786585   4.038300   2.856769
    22  H    3.579078   4.522005   4.270892   3.172202   1.905607
                    6          7          8          9         10
     6  C    0.000000
     7  C    1.412029   0.000000
     8  C    2.467436   1.493780   0.000000
     9  C    3.239668   2.391487   1.546913   0.000000
    10  O    3.664073   2.362417   2.844757   3.212179   0.000000
    11  H    5.124641   4.477039   3.443292   2.105071   5.062077
    12  H    5.175381   4.186058   2.898316   2.105071   4.319883
    13  H    4.557597   3.997297   2.655067   2.105071   5.033098
    14  H    2.133783   3.371932   4.598446   5.232321   5.197138
    15  H    3.382373   3.821975   5.313090   5.824490   4.489945
    16  H    3.911286   3.397229   4.677336   5.090248   2.640180
    17  H    1.070000   2.169671   2.661656   3.387127   4.528148
    18  H    2.484482   2.088915   1.070000   2.135472   3.867376
    19  H    3.291454   2.088915   1.070000   2.135472   2.522372
    20  H    2.928386   2.539171   2.108456   1.070000   3.833514
    21  H    3.725988   2.631529   2.108456   1.070000   2.584105
    22  H    3.773469   2.370352   2.305999   2.569561   0.960000
                   11         12         13         14         15
    11  H    0.000000
    12  H    1.747303   0.000000
    13  H    1.747303   1.747303   0.000000
    14  H    6.996566   7.253998   6.557342   0.000000
    15  H    7.746854   7.797747   7.635958   2.453066   0.000000
    16  H    7.027619   6.704690   7.084941   4.277707   2.451952
    17  H    5.001435   5.196089   4.233903   2.477409   4.273060
    18  H    3.646968   3.292206   2.455835   4.537905   5.718542
    19  H    3.839983   2.796043   3.046259   5.366696   5.778276
    20  H    2.298385   2.948602   2.450394   4.711435   5.548436
    21  H    2.510245   2.251469   2.934419   5.624569   5.760277
    22  H    4.301305   3.399827   4.225405   5.577257   5.223080
                   16         17         18         19         20
    16  H    0.000000
    17  H    4.980700   0.000000
    18  H    5.467217   2.241031   0.000000
    19  H    4.745836   3.604338   1.853294   0.000000
    20  H    5.229808   2.931819   2.369395   2.981268   0.000000
    21  H    4.625450   4.123571   2.982737   2.308326   1.853294
    22  H    3.564516   4.467322   3.364114   1.829605   3.383662
                   21         22
    21  H    0.000000
    22  H    1.938664   0.000000
 Symmetry turned off by external request.
 Stoichiometry    C9H12O
 Framework group  C1[X(C9H12O)]
 Deg. of freedom    60
 Full point group                 C1      NOp   1
 Rotational constants (GHZ):           2.4847030           0.9208907           0.7292669
 Standard basis: 6-31G(d) (6D, 7F)
   174 basis functions,   328 primitive gaussians,   174 cartesian basis functions
    37 alpha electrons       37 beta electrons
       nuclear repulsion energy       515.9745013828 Hartrees.
 NAtoms=   22 NActive=   22 NUniq=   22 SFac= 1.00D+00 NAtFMM=   60 NAOKFM=F Big=F
 Integral buffers will be    131072 words long.
 Raffenetti 2 integral format.
 Two-electron integral symmetry is turned off.
 ------------------------------------------------------------------------------
 Polarizable Continuum Model (PCM)
 =================================
 Model                : PCM.
 Atomic radii         : SMD-Coulomb.
 Polarization charges : Total charges.
 Charge compensation  : None.
 Solution method      : On-the-fly selection.
 Cavity type          : VdW (van der Waals Surface) (Alpha=1.000).
 Cavity algorithm     : GePol (No added spheres)
                        Default sphere list used, NSphG=   22.
                        Lebedev-Laikov grids with approx.  5.0 points / Ang**2.
                        Smoothing algorithm: York/Karplus (Gamma=1.0000).
                        Polarization charges: spherical gaussians, with
                                              point-specific exponents (IZeta= 3).
                        Self-potential: point-specific (ISelfS= 7).
                        Self-field    : sphere-specific E.n sum rule (ISelfD= 2).
 1st derivatives      : Analytical E(r).r(x)/FMM algorithm (CHGder, D1EAlg=3).
                        Cavity 1st derivative terms included.
 Solvent              : Water, Eps=  78.355300 Eps(inf)=   1.777849
 ------------------------------------------------------------------------------
 ------------------------------------------------------------------------------
 Atomic radii for non-electrostatic terms: SMD-CDS.
 ------------------------------------------------------------------------------
 Nuclear repulsion after PCM non-electrostatic terms =      515.9811539950 Hartrees.
 One-electron integrals computed using PRISM.
 NBasis=   174 RedAO= T EigKep=  4.27D-04  NBF=   174
 NBsUse=   174 1.00D-06 EigRej= -1.00D+00 NBFU=   174
 ExpMin= 1.61D-01 ExpMax= 5.48D+03 ExpMxC= 8.25D+02 IAcc=3 IRadAn=         5 AccDes= 0.00D+00
 Harris functional with IExCor=  402 and IRadAn=       5 diagonalized for initial guess.
 HarFok:  IExCor=  402 AccDes= 0.00D+00 IRadAn=         5 IDoV= 1 UseB2=F ITyADJ=14
 ICtDFT=  3500011 ScaDFX=  1.000000  1.000000  1.000000  1.000000
 FoFCou: FMM=F IPFlag=           0 FMFlag=      100000 FMFlg1=           0
         NFxFlg=           0 DoJE=T BraDBF=F KetDBF=T FulRan=T
         wScrn=  0.000000 ICntrl=       500 IOpCl=  0 I1Cent=   200000004 NGrid=           0
         NMat0=    1 NMatS0=      1 NMatT0=    0 NMatD0=    1 NMtDS0=    0 NMtDT0=    0
 Symmetry not used in FoFCou.
 Keep R1 ints in memory in canonical form, NReq=121919033.
 Requested convergence on RMS density matrix=1.00D-08 within 128 cycles.
 Requested convergence on MAX density matrix=1.00D-06.
 Requested convergence on             energy=1.00D-06.
 No special actions if energy rises.
 Inv3:  Mode=1 IEnd=     7489200.
 Iteration    1 A*A^-1 deviation from unit magnitude is 3.11D-15 for   1466.
 Iteration    1 A*A^-1 deviation from orthogonality  is 1.75D-15 for   1465    474.
 Iteration    1 A^-1*A deviation from unit magnitude is 3.11D-15 for   1466.
 Iteration    1 A^-1*A deviation from orthogonality  is 2.57D-15 for   1570   1427.
 Error on total polarization charges =  0.04155
 SCF Done:  E(RB3LYP) =  -425.389198433     A.U. after   12 cycles
            NFock= 12  Conv=0.59D-08     -V/T= 2.0081
 SMD-CDS (non-electrostatic) energy       (kcal/mol) =       4.17
 (included in total energy above)

 **********************************************************************

            Population analysis using the SCF Density.

 **********************************************************************

 Alpha  occ. eigenvalues --  -19.17222 -10.23904 -10.18047 -10.17905 -10.17891
 Alpha  occ. eigenvalues --  -10.17825 -10.17344 -10.17160 -10.16507 -10.15095
 Alpha  occ. eigenvalues --   -1.06128  -0.84913  -0.80048  -0.74533  -0.73266
 Alpha  occ. eigenvalues --   -0.67641  -0.60444  -0.59984  -0.57799  -0.53504
 Alpha  occ. eigenvalues --   -0.49729  -0.47070  -0.45300  -0.43509  -0.42101
 Alpha  occ. eigenvalues --   -0.41753  -0.39437  -0.39186  -0.38391  -0.35947
 Alpha  occ. eigenvalues --   -0.34354  -0.33493  -0.32979  -0.31690  -0.31353
 Alpha  occ. eigenvalues --   -0.23990  -0.21308
 Alpha virt. eigenvalues --    0.00392   0.01914   0.07754   0.11417   0.13298
 Alpha virt. eigenvalues --    0.14458   0.15848   0.17544   0.17881   0.18996
 Alpha virt. eigenvalues --    0.19146   0.19925   0.21268   0.21950   0.23849
 Alpha virt. eigenvalues --    0.24984   0.25828   0.26813   0.27782   0.32537
 Alpha virt. eigenvalues --    0.33455   0.36792   0.38891   0.48014   0.50837
 Alpha virt. eigenvalues --    0.51666   0.52788   0.54092   0.54748   0.56524
 Alpha virt. eigenvalues --    0.58333   0.59865   0.60849   0.61350   0.61509
 Alpha virt. eigenvalues --    0.62121   0.63576   0.64107   0.66596   0.67154
 Alpha virt. eigenvalues --    0.67714   0.71077   0.73805   0.76021   0.79684
 Alpha virt. eigenvalues --    0.82621   0.83885   0.85358   0.85542   0.87520
 Alpha virt. eigenvalues --    0.87939   0.89731   0.92070   0.93193   0.93687
 Alpha virt. eigenvalues --    0.95333   0.96434   0.97352   0.97724   0.98767
 Alpha virt. eigenvalues --    1.02695   1.05225   1.05326   1.08672   1.10808
 Alpha virt. eigenvalues --    1.14074   1.16305   1.21283   1.25551   1.26001
 Alpha virt. eigenvalues --    1.29001   1.31654   1.36109   1.39726   1.40637
 Alpha virt. eigenvalues --    1.43519   1.45075   1.47552   1.49877   1.50864
 Alpha virt. eigenvalues --    1.59245   1.67391   1.73338   1.75900   1.77869
 Alpha virt. eigenvalues --    1.79916   1.82617   1.86503   1.90800   1.91810
 Alpha virt. eigenvalues --    1.93826   1.96917   1.98720   2.00218   2.01081
 Alpha virt. eigenvalues --    2.04409   2.06700   2.08238   2.10532   2.12754
 Alpha virt. eigenvalues --    2.14398   2.19441   2.22602   2.26032   2.26332
 Alpha virt. eigenvalues --    2.28857   2.32079   2.34061   2.35667   2.37021
 Alpha virt. eigenvalues --    2.43188   2.44354   2.48969   2.55000   2.58412
 Alpha virt. eigenvalues --    2.58855   2.65973   2.67883   2.71358   2.73398
 Alpha virt. eigenvalues --    2.78410   2.78512   2.84772   2.87317   3.00730
 Alpha virt. eigenvalues --    3.17031   3.44712   4.02776   4.10644   4.15920
 Alpha virt. eigenvalues --    4.18656   4.24909   4.34805   4.41362   4.43725
 Alpha virt. eigenvalues --    4.56109   4.79369
          Condensed to atoms (all electrons):
               1          2          3          4          5          6
     1  C    5.093160   0.000002  -0.000001   0.000001   0.000076   0.000258
     2  C    0.000002   4.941880   0.538278  -0.032285  -0.048973   0.516067
     3  C   -0.000001   0.538278   4.889353   0.539806  -0.018274  -0.034141
     4  C    0.000001  -0.032285   0.539806   5.016707   0.502009  -0.044544
     5  C    0.000076  -0.048973  -0.018274   0.502009   4.618054  -0.007376
     6  C    0.000258   0.516067  -0.034141  -0.044544  -0.007376   4.991000
     7  C    0.006566  -0.030282  -0.035816  -0.058391   0.490415   0.517927
     8  C   -0.045756   0.007650   0.000261   0.008441  -0.055093  -0.059227
     9  C    0.363041  -0.000107   0.000021   0.000067  -0.001653  -0.009184
    10  O    0.000056   0.000111   0.003263  -0.060707   0.287878   0.004954
    11  H    0.377257  -0.000000   0.000000  -0.000000  -0.000004  -0.000009
    12  H    0.381379  -0.000000   0.000000  -0.000000  -0.000007  -0.000004
    13  H    0.383258   0.000000  -0.000000   0.000000   0.000002   0.000006
    14  H   -0.000000   0.361970  -0.042595   0.004539   0.001042  -0.041623
    15  H    0.000000  -0.043783   0.366216  -0.043250   0.004930   0.005215
    16  H   -0.000000   0.004934  -0.041537   0.352262  -0.038676   0.000188
    17  H   -0.000065  -0.043807   0.004489   0.000372   0.004238   0.362374
    18  H   -0.005602   0.000339   0.000017  -0.000213   0.004404  -0.005972
    19  H   -0.000503  -0.000293   0.000006  -0.000074  -0.007939   0.005019
    20  H   -0.048057  -0.000274  -0.000014  -0.000092  -0.000570   0.005724
    21  H   -0.045127   0.000080  -0.000012  -0.000322   0.004200  -0.000269
    22  H   -0.000472  -0.000033  -0.000203   0.005503  -0.023781   0.000242
               7          8          9         10         11         12
     1  C    0.006566  -0.045756   0.363041   0.000056   0.377257   0.381379
     2  C   -0.030282   0.007650  -0.000107   0.000111  -0.000000  -0.000000
     3  C   -0.035816   0.000261   0.000021   0.003263   0.000000   0.000000
     4  C   -0.058391   0.008441   0.000067  -0.060707  -0.000000  -0.000000
     5  C    0.490415  -0.055093  -0.001653   0.287878  -0.000004  -0.000007
     6  C    0.517927  -0.059227  -0.009184   0.004954  -0.000009  -0.000004
     7  C    4.921244   0.347217  -0.061487  -0.072467  -0.000243   0.000017
     8  C    0.347217   5.214234   0.368434  -0.011723   0.005228  -0.002651
     9  C   -0.061487   0.368434   5.026515  -0.005534  -0.030111  -0.034841
    10  O   -0.072467  -0.011723  -0.005534   8.296237   0.000000   0.000021
    11  H   -0.000243   0.005228  -0.030111   0.000000   0.563939  -0.029565
    12  H    0.000017  -0.002651  -0.034841   0.000021  -0.029565   0.564832
    13  H    0.000133  -0.008820  -0.041963  -0.000005  -0.030245  -0.029761
    14  H    0.004340  -0.000232  -0.000000   0.000003   0.000000   0.000000
    15  H    0.000506   0.000002  -0.000000  -0.000068  -0.000000   0.000000
    16  H    0.006611  -0.000149   0.000004  -0.000606   0.000000  -0.000000
    17  H   -0.037556  -0.009789   0.000314  -0.000053   0.000003   0.000001
    18  H   -0.030186   0.364418  -0.033295   0.000337   0.000049  -0.000319
    19  H   -0.038127   0.353300  -0.047917   0.005102  -0.000130   0.003042
    20  H   -0.003690  -0.048715   0.387160   0.000101  -0.007279   0.006282
    21  H   -0.011782  -0.047458   0.379983   0.006641  -0.000966  -0.008059
    22  H   -0.013523   0.014225   0.003017   0.242730   0.000009  -0.000025
              13         14         15         16         17         18
     1  C    0.383258  -0.000000   0.000000  -0.000000  -0.000065  -0.005602
     2  C    0.000000   0.361970  -0.043783   0.004934  -0.043807   0.000339
     3  C   -0.000000  -0.042595   0.366216  -0.041537   0.004489   0.000017
     4  C    0.000000   0.004539  -0.043250   0.352262   0.000372  -0.000213
     5  C    0.000002   0.001042   0.004930  -0.038676   0.004238   0.004404
     6  C    0.000006  -0.041623   0.005215   0.000188   0.362374  -0.005972
     7  C    0.000133   0.004340   0.000506   0.006611  -0.037556  -0.030186
     8  C   -0.008820  -0.000232   0.000002  -0.000149  -0.009789   0.364418
     9  C   -0.041963  -0.000000  -0.000000   0.000004   0.000314  -0.033295
    10  O   -0.000005   0.000003  -0.000068  -0.000606  -0.000053   0.000337
    11  H   -0.030245   0.000000  -0.000000   0.000000   0.000003   0.000049
    12  H   -0.029761   0.000000   0.000000  -0.000000   0.000001  -0.000319
    13  H    0.566520  -0.000000   0.000000   0.000000  -0.000002   0.006143
    14  H   -0.000000   0.578555  -0.005842  -0.000156  -0.004512  -0.000014
    15  H    0.000000  -0.005842   0.572316  -0.006338  -0.000179   0.000000
    16  H    0.000000  -0.000156  -0.006338   0.565835   0.000016   0.000002
    17  H   -0.000002  -0.004512  -0.000179   0.000016   0.556959   0.006142
    18  H    0.006143  -0.000014   0.000000   0.000002   0.006142   0.538298
    19  H   -0.000181   0.000004  -0.000000  -0.000000   0.000162  -0.018789
    20  H   -0.001320   0.000008  -0.000000   0.000001   0.000846  -0.003924
    21  H    0.006572   0.000000  -0.000000   0.000006  -0.000009   0.006084
    22  H    0.000021  -0.000000   0.000005  -0.000205  -0.000015  -0.000206
              19         20         21         22
     1  C   -0.000503  -0.048057  -0.045127  -0.000472
     2  C   -0.000293  -0.000274   0.000080  -0.000033
     3  C    0.000006  -0.000014  -0.000012  -0.000203
     4  C   -0.000074  -0.000092  -0.000322   0.005503
     5  C   -0.007939  -0.000570   0.004200  -0.023781
     6  C    0.005019   0.005724  -0.000269   0.000242
     7  C   -0.038127  -0.003690  -0.011782  -0.013523
     8  C    0.353300  -0.048715  -0.047458   0.014225
     9  C   -0.047917   0.387160   0.379983   0.003017
    10  O    0.005102   0.000101   0.006641   0.242730
    11  H   -0.000130  -0.007279  -0.000966   0.000009
    12  H    0.003042   0.006282  -0.008059  -0.000025
    13  H   -0.000181  -0.001320   0.006572   0.000021
    14  H    0.000004   0.000008   0.000000  -0.000000
    15  H   -0.000000  -0.000000  -0.000000   0.000005
    16  H   -0.000000   0.000001   0.000006  -0.000205
    17  H    0.000162   0.000846  -0.000009  -0.000015
    18  H   -0.018789  -0.003924   0.006084  -0.000206
    19  H    0.577746   0.006870  -0.010328   0.006879
    20  H    0.006870   0.575702  -0.021270  -0.000143
    21  H   -0.010328  -0.021270   0.586112   0.005427
    22  H    0.006879  -0.000143   0.005427   0.300794
 Mulliken charges:
               1
     1  C   -0.459472
     2  C   -0.171472
     3  C   -0.169115
     4  C   -0.189828
     5  C    0.285099
     6  C   -0.206625
     7  C    0.098571
     8  C   -0.393797
     9  C   -0.262463
    10  O   -0.696273
    11  H    0.152067
    12  H    0.149660
    13  H    0.149644
    14  H    0.144514
    15  H    0.150268
    16  H    0.157808
    17  H    0.160070
    18  H    0.172285
    19  H    0.166152
    20  H    0.152655
    21  H    0.150497
    22  H    0.459754
 Sum of Mulliken charges =  -0.00000
 Mulliken charges with hydrogens summed into heavy atoms:
               1
     1  C   -0.008100
     2  C   -0.026958
     3  C   -0.018846
     4  C   -0.032020
     5  C    0.285099
     6  C   -0.046554
     7  C    0.098571
     8  C   -0.055360
     9  C    0.040689
    10  O   -0.236519
 DipInt: DoE/N= T F RetVal/Mat= T F Init=T NMatP=  1 IDeriv=0 Min/MaxMlt=  0  4
 Entering OneElI...
 OneElI was handed  1342096999 working-precision words.
 Multipole integrals L=0 to 4 MinM= 0 MaxM= 0.
 Requested accuracy = 0.1000D-12
 ShPair: Thresh= 1.00D-13 NBox=     0 BxSize= 0.00D+00 RnKept= 1.47D+01
         NSMCal=                 2080 NSMKep=                1934
 PrmmSu-InSpLW:  IPartL=    0 NPrtUS=    1 NPrtUL=    1 DoSpLW=F IThBeg=    0 IThEnd=    0 NThAct=    1.
 PrSmSu:  IncTry=   512 NBBP=           1934 NTPThr=   100 NPartT=    1 Incr=          19 LDynOK=F GPUOK=F.
 PrsmSu:  NPrtUS=   1 ThrOK=F IAlg=2 LenDen=           0 ISkipM=0 DoSpLW=F IThBeg=    0 IThEnd=    0.
 Prism:   IPart=     0 DynPar=F LinDyn=F Incr=          19.
 PRISM was handed  1341927968 working-precision words and  1934 shell-pairs
 IPart=  0 NShTot=        1934 NBatch=          41 AvBLen=        47.2
 PrsmSu-ThDecC:  IPartSL=    0    0 NPrtUSL=    1    1 IThBeg=    0 IThEnd=    0 CPU=   -1 GPU=   -1 NThAct=    1.
 PrSmSu:  NxtVal=             20.
 Electronic moments (au):
        -74.00000000      -3187.07459933       3521.96690271        442.29778189
    -137548.52064888    -168077.98186033      -3538.75667726     151451.53252760
      18810.13795382     -21292.77859753   -5948790.93981994    8043024.94024390
      30847.28584525   -7216296.11604584    6526364.07377180     801047.19072499
    -150409.10979345     170951.35668186    1027984.25664360    -904305.51381450
 -257819254.67127180 -385939592.53550017    -285994.53389102  281828830.96436858
   34159682.27919147  344768176.08619028  -49769808.30656938    1310855.50448751
   -1494510.46466458 -310478577.54889953   -6400735.79840069   -8281794.81426748
  -38458090.12533832   43598989.19382375    7256300.29299431
 Electronic spatial extent (au):  <R**2>=         309165.2592
 DipInt: DoE/N= F T RetVal/Mat= T F Init=T NMatP=  1 IDeriv=0 Min/MaxMlt=  0  4
 Nuclear    moments (au):
         74.00000000       3187.12134808      -3521.89516130       -441.34270488
     137506.53512567     168028.65255434       3483.98257599    -151448.67133496
     -18769.51822424      21249.15246170    5943117.62287156   -8036458.44564833
     -29989.03390314    7214083.28920213   -6524058.69059826    -799038.11816334
     148051.33146902    -168384.35413942   -1025736.01085034     902440.60365948
  257323050.75282982  385327499.53580904     273250.06668934 -281542123.39915502
  -34050363.89431410 -344476597.47573930   49641826.19111432   -1274360.60047365
    1453712.03532462  310274638.50836253    6296788.32783958    8159131.64021100
   38364787.56358317  -43502426.94640443   -7145894.03918799
 Total      moments (au):
         -0.00000000          0.04674875          0.07174141          0.95507701
        -41.98552321        -49.32930599        -54.77410128          2.86119263
         40.61972958        -43.62613582      -5673.31694838       6566.49459557
        858.25194211      -2212.82684371       2305.38317354       2009.07256164
      -2357.77832443       2567.00254244       2248.24579327      -1864.91015502
    -496203.91844198    -612092.99969113     -12744.46720169     286707.56521356
     109318.38487737     291578.61045098    -127982.11545506      36494.90401386
     -40798.42933996    -203939.04053700    -103947.47056111    -122663.17405648
     -93302.56175515      96562.24741931     110406.25380632
 Traceless Quadrup. (au):
          6.71078694         -0.63299583         -6.07779112          2.86119263
         40.61972958        -43.62613582
 Charge=             -0.0000 electrons
 Dipole moment (field-independent basis, Debye):
    X=              0.1188    Y=              0.1823    Z=              2.4276  Tot=              2.4373
 Quadrupole moment (field-independent basis, Debye-Ang):
   XX=            -56.4720   YY=            -66.3496   ZZ=            -73.6730
   XY=              3.8484   XZ=             54.6349   YZ=            -58.6786
 Traceless Quadrupole moment (field-independent basis, Debye-Ang):
   XX=              9.0262   YY=             -0.8514   ZZ=             -8.1748
   XY=              3.8484   XZ=             54.6349   YZ=            -58.6786
 Octapole moment (field-independent basis, Debye-Ang**2):
  XXX=          -4038.0484  YYY=           4673.7779  ZZZ=            610.8707  XYY=          -1575.0049
  XXY=           1640.8829  XXZ=           1429.9804  XZZ=          -1678.1758  YZZ=           1827.0935
  YYZ=           1600.2147  XYZ=          -1327.3712
 Hexadecapole moment (field-independent basis, Debye-Ang**3):
 XXXX=        -186894.1895 YYYY=        -230543.5745 ZZZZ=          -4800.1775 XXXY=         107987.8171
 XXXZ=          41174.5457 YYYX=         109822.4864 YYYZ=         -48204.2016 ZZZX=          13745.7308
 ZZZY=         -15366.6448 XXYY=         -76813.2219 XXZZ=         -39151.6019 YYZZ=         -46200.8332
 XXYZ=         -35142.2188 YYXZ=          36369.9727 ZZXY=          41584.2893
 N-N= 5.159811539950D+02 E-N=-2.019857814083D+03  KE= 4.219835043949D+02
 Entering OneElI...
 OneElI was handed  1342111478 working-precision words.
 Calculate electrostatic properties
    NBasis =   174  MinDer = 0  MaxDer = 0
    NGrid  =    22  NMatD  =   1
 Requested accuracy = 0.1000D-12
 ShPair: Thresh= 1.00D-13 NBox=     0 BxSize= 0.00D+00 RnKept= 1.47D+01
         NSMCal=                 2080 NSMKep=                1835
 PrmmSu-InSpLW:  IPartL=    0 NPrtUS=    6 NPrtUL=    1 DoSpLW=F IThBeg=    0 IThEnd=    5 NThAct=    6.
 PrSmSu:  IncTry=   512 NBBP=          40370 NTPThr=   100 NPartT=    6 Incr=          67 LDynOK=F GPUOK=F.
 PrsmSu:  NPrtUS=   6 ThrOK=T IAlg=2 LenDen=           0 ISkipM=0 DoSpLW=F IThBeg=    0 IThEnd=    5.
 Prism:   IPart=     0 DynPar=F LinDyn=F Incr=          67.
 PRISM was handed   223609461 working-precision words and  1835 shell-pairs
 PRISM was handed   223609461 working-precision words and  1835 shell-pairs
 PRISM was handed   223609461 working-precision words and  1835 shell-pairs
 PRISM was handed   223609461 working-precision words and  1835 shell-pairs
 PRISM was handed   223609461 working-precision words and  1835 shell-pairs
 PRISM was handed   223609461 working-precision words and  1835 shell-pairs
 IPart=  0 NShTot=        7084 NBatch=         322 AvBLen=        22.0
 PrsmSu-ThDecC:  IPartSL=    0    0 NPrtUSL=    6    1 IThBeg=    0 IThEnd=    5 CPU=   -1 GPU=   -1 NThAct=    6.
 IPart=  5 NShTot=        6358 NBatch=         289 AvBLen=        22.0
 PrsmSu-ThDecC:  IPartSL=    5    0 NPrtUSL=    6    1 IThBeg=    0 IThEnd=    5 CPU=   -1 GPU=   -1 NThAct=    5.
 IPart=  1 NShTot=        6952 NBatch=         316 AvBLen=        22.0
 PrsmSu-ThDecC:  IPartSL=    1    0 NPrtUSL=    6    1 IThBeg=    0 IThEnd=    5 CPU=   -1 GPU=   -1 NThAct=    4.
 IPart=  4 NShTot=        6512 NBatch=         296 AvBLen=        22.0
 PrsmSu-ThDecC:  IPartSL=    4    0 NPrtUSL=    6    1 IThBeg=    0 IThEnd=    5 CPU=   -1 GPU=   -1 NThAct=    3.
 IPart=  2 NShTot=        6798 NBatch=         309 AvBLen=        22.0
 PrsmSu-ThDecC:  IPartSL=    2    0 NPrtUSL=    6    1 IThBeg=    0 IThEnd=    5 CPU=   -1 GPU=   -1 NThAct=    2.
 IPart=  3 NShTot=        6666 NBatch=         303 AvBLen=        22.0
 PrsmSu-ThDecC:  IPartSL=    3    0 NPrtUSL=    6    1 IThBeg=    0 IThEnd=    5 CPU=   -1 GPU=   -1 NThAct=    1.
 PrSmSu:  NxtVal=            403.
 --------------------------------------------------------
       Center         ----      EFG at Nuclei      ----
                      3XX-RR        3YY-RR        3ZZ-RR
 --------------------------------------------------------
     1   Atom        0.008436      0.003900     -0.012336
     2   Atom       -0.159839      0.047708      0.112131
     3   Atom       -0.178829      0.064232      0.114597
     4   Atom       -0.123628      0.060051      0.063577
     5   Atom       -0.128494     -0.180963      0.309457
     6   Atom       -0.189018      0.058925      0.130093
     7   Atom       -0.139485      0.060682      0.078803
     8   Atom       -0.001024      0.018552     -0.017528
     9   Atom       -0.053595      0.041222      0.012372
    10   Atom        0.843366     -0.571708     -0.271658
    11   Atom       -0.190108      0.077680      0.112427
    12   Atom        0.160702     -0.319856      0.159153
    13   Atom       -0.101359      0.154109     -0.052750
    14   Atom        0.064900     -0.218102      0.153203
    15   Atom        0.166631     -0.005416     -0.161216
    16   Atom        0.109127      0.107065     -0.216193
    17   Atom        0.121887      0.100336     -0.222223
    18   Atom       -0.016881      0.087630     -0.070749
    19   Atom        0.160551     -0.299917      0.139366
    20   Atom        0.158293     -0.320474      0.162181
    21   Atom       -0.002476      0.069264     -0.066789
    22   Atom        0.226687      0.133840     -0.360527
 --------------------------------------------------------
                        XY            XZ            YZ
 --------------------------------------------------------
     1   Atom        0.000430     -0.001611     -0.006317
     2   Atom        0.134199     -0.054244      0.040473
     3   Atom        0.147896     -0.074142      0.032898
     4   Atom        0.137726     -0.047507      0.004405
     5   Atom       -0.038797     -0.064289      0.054152
     6   Atom        0.146969     -0.052957      0.055377
     7   Atom        0.128520     -0.041499      0.027851
     8   Atom        0.019981     -0.010475     -0.023009
     9   Atom        0.022560     -0.029200      0.009332
    10   Atom       -1.058473     -0.294085     -0.649421
    11   Atom        0.179616     -0.141047      0.068680
    12   Atom       -0.069460      0.005154      0.044462
    13   Atom       -0.064677      0.241343      0.055256
    14   Atom       -0.207562      0.011264      0.012372
    15   Atom       -0.028617     -0.024895     -0.228179
    16   Atom       -0.062066      0.154108      0.134848
    17   Atom       -0.059494      0.135906      0.141608
    18   Atom       -0.117442      0.206482      0.128486
    19   Atom        0.036393      0.003677      0.101618
    20   Atom        0.035776     -0.007712      0.044074
    21   Atom       -0.123112      0.186547      0.157537
    22   Atom       -0.055508     -0.080886     -0.206918
 --------------------------------------------------------


 ---------------------------------------------------------------------------------
              Nuclear Quadrupole Coupling Constant in Principal Axis System
 ---------------------------------------------------------------------------------

       Atom             a.u.   MegaHertz   Gauss  10(-4) cm-1        Axes


 ---------------------------------------------------------------------------------

 No NMR shielding tensors so no spin-rotation constants.
 Leave Link  601 at Sat Aug 28 13:22:06 2021, MaxMem=  1342177280 cpu:               0.3 elap:               0.1
 FitSet:  NAtFit=    22 NAtPot=    22 NAtFrz=     0 MDM=    26 TotChg=   0.00000
 Merz-Kollman atomic radii used.
 Atom Element Radius
    1     6    1.50
    2     6    1.50
    3     6    1.50
    4     6    1.50
    5     6    1.50
    6     6    1.50
    7     6    1.50
    8     6    1.50
    9     6    1.50
   10     8    1.40
   11     1    1.20
   12     1    1.20
   13     1    1.20
   14     1    1.20
   15     1    1.20
   16     1    1.20
   17     1    1.20
   18     1    1.20
   19     1    1.20
   20     1    1.20
   21     1    1.20
   22     1    1.20
 Generate VDW surfaces: Layer= 4 Dens= 6 Start= 1.400 Inc= 0.200

 **********************************************************************

            Electrostatic Properties Using The SCF Density.

 **********************************************************************

       Atomic Center    1 is at  24.294000-24.124000 -0.071000
       Atomic Center    2 is at  21.553000-27.214000 -4.112000
       Atomic Center    3 is at  22.068000-26.747000 -5.331000
       Atomic Center    4 is at  22.671000-25.512000 -5.448000
       Atomic Center    5 is at  22.769000-24.730000 -4.295000
       Atomic Center    6 is at  21.693000-26.459000 -2.954000
       Atomic Center    7 is at  22.294000-25.187000 -3.075000
       Atomic Center    8 is at  22.463000-24.414000 -1.808000
       Atomic Center    9 is at  23.925000-24.704000 -1.394000
       Atomic Center   10 is at  23.412000-23.536000 -4.342000
       Atomic Center   11 is at  25.197052-24.579160  0.278610
       Atomic Center   12 is at  24.442448-23.069255 -0.172861
       Atomic Center   13 is at  23.507321-24.307337  0.630729
       Atomic Center   14 is at  21.049400-28.157317 -4.074057
       Atomic Center   15 is at  21.990373-27.369262 -6.197985
       Atomic Center   16 is at  23.049566-25.165987 -6.387075
       Atomic Center   17 is at  21.358214-26.827364 -2.006833
       Atomic Center   18 is at  21.818945-24.844423 -1.069874
       Atomic Center   19 is at  22.386461-23.373001 -2.043292
       Atomic Center   20 is at  23.992012-25.765575 -1.277948
       Atomic Center   21 is at  24.538527-24.204803 -2.114616
       Atomic Center   22 is at  23.545668-23.209174 -3.449298
      ESP Fit Center   23 is at  24.703690-24.124000  1.988649
      ESP Fit Center   24 is at  24.498845-23.769198  1.988649
      ESP Fit Center   25 is at  24.498845-24.478802  1.988649
      ESP Fit Center   26 is at  24.989969-23.722182  1.869147
      ESP Fit Center   27 is at  24.695818-23.428031  1.869147
      ESP Fit Center   28 is at  24.294000-23.320365  1.869147
      ESP Fit Center   29 is at  24.695818-24.819969  1.869147
      ESP Fit Center   30 is at  25.156200-23.338001  1.675086
      ESP Fit Center   31 is at  24.814042-23.079615  1.675086
      ESP Fit Center   32 is at  24.401649-22.962279  1.675086
      ESP Fit Center   33 is at  23.974718-23.001840  1.675086
      ESP Fit Center   34 is at  24.401649-25.285721  1.675086
      ESP Fit Center   35 is at  25.543198-23.321189  1.413924
      ESP Fit Center   36 is at  25.266419-23.001769  1.413924
      ESP Fit Center   37 is at  24.910860-22.773265  1.413924
      ESP Fit Center   38 is at  23.677140-22.773265  1.413924
      ESP Fit Center   39 is at  25.600964-22.966131  1.095697
      ESP Fit Center   40 is at  23.302110-22.686999  1.095697
      ESP Fit Center   41 is at  24.083533-25.857355  1.095697
      ESP Fit Center   42 is at  23.980119-26.038589  0.732635
      ESP Fit Center   43 is at  24.399037-26.061302  0.732635
      ESP Fit Center   44 is at  22.731225-22.782401  0.338690
      ESP Fit Center   45 is at  23.386943-25.973162  0.338690
      ESP Fit Center   46 is at  24.189680-26.181006  0.338690
      ESP Fit Center   47 is at  24.605888-26.159898  0.338690
      ESP Fit Center   48 is at  22.809076-22.639076 -0.071000
      ESP Fit Center   49 is at  22.547914-22.957303 -0.071000
      ESP Fit Center   50 is at  26.186731-23.311765 -0.480690
      ESP Fit Center   51 is at  22.731225-22.782401 -0.480690
      ESP Fit Center   52 is at  26.188787-23.706926 -0.874635
      ESP Fit Center   53 is at  26.054830-23.309353 -0.874635
      ESP Fit Center   54 is at  26.040086-24.124000 -1.237697
      ESP Fit Center   55 is at  25.989348-23.706134 -1.237697
      ESP Fit Center   56 is at  25.840083-23.312553 -1.237697
      ESP Fit Center   57 is at  21.764327-28.683810 -2.627076
      ESP Fit Center   58 is at  22.169860-28.564735 -2.627076
      ESP Fit Center   59 is at  19.857652-27.631866 -2.945303
      ESP Fit Center   60 is at  22.172171-28.846619 -2.945303
      ESP Fit Center   61 is at  22.544890-28.651001 -2.945303
      ESP Fit Center   62 is at  22.859964-28.371869 -2.945303
      ESP Fit Center   63 is at  23.099083-28.025447 -2.945303
      ESP Fit Center   64 is at  19.624226-27.004233 -3.308365
      ESP Fit Center   65 is at  19.624226-27.423767 -3.308365
      ESP Fit Center   66 is at  22.461781-28.928143 -3.308365
      ESP Fit Center   67 is at  22.809025-28.692706 -3.308365
      ESP Fit Center   68 is at  23.097538-28.388127 -3.308365
      ESP Fit Center   69 is at  23.313830-28.028647 -3.308365
      ESP Fit Center   70 is at  23.447787-27.631074 -3.308365
      ESP Fit Center   71 is at  23.612649-27.214000 -3.702310
      ESP Fit Center   72 is at  19.587808-26.597417 -3.702310
      ESP Fit Center   73 is at  19.503918-27.005629 -3.702310
      ESP Fit Center   74 is at  19.503918-27.422371 -3.702310
      ESP Fit Center   75 is at  22.642480-28.961909 -3.702310
      ESP Fit Center   76 is at  22.972030-28.706819 -3.702310
      ESP Fit Center   77 is at  23.243485-28.390612 -3.702310
      ESP Fit Center   78 is at  23.445731-28.026235 -3.702310
      ESP Fit Center   79 is at  23.570488-27.628604 -3.702310
      ESP Fit Center   80 is at  20.068076-25.729076 -4.112000
      ESP Fit Center   81 is at  19.806914-26.047303 -4.112000
      ESP Fit Center   82 is at  19.612853-26.410365 -4.112000
      ESP Fit Center   83 is at  19.493351-26.804310 -4.112000
      ESP Fit Center   84 is at  19.453000-27.214000 -4.112000
      ESP Fit Center   85 is at  22.719697-28.960086 -4.112000
      ESP Fit Center   86 is at  23.037924-28.698924 -4.112000
      ESP Fit Center   87 is at  23.299086-28.380697 -4.112000
      ESP Fit Center   88 is at  23.493147-28.017635 -4.112000
      ESP Fit Center   89 is at  23.612649-27.623690 -4.112000
      ESP Fit Center   90 is at  20.645943-25.364838 -4.521690
      ESP Fit Center   91 is at  20.292276-25.585279 -4.521690
      ESP Fit Center   92 is at  19.990225-25.872401 -4.521690
      ESP Fit Center   93 is at  19.752153-26.214448 -4.521690
      ESP Fit Center   94 is at  19.587808-26.597417 -4.521690
      ESP Fit Center   95 is at  19.503918-27.005629 -4.521690
      ESP Fit Center   96 is at  19.503918-27.422371 -4.521690
      ESP Fit Center   97 is at  22.642480-28.961909 -4.521690
      ESP Fit Center   98 is at  22.972030-28.706819 -4.521690
      ESP Fit Center   99 is at  23.243485-28.390612 -4.521690
      ESP Fit Center  100 is at  20.144462-25.879762 -4.915635
      ESP Fit Center  101 is at  19.890571-26.213750 -4.915635
      ESP Fit Center  102 is at  19.714414-26.594508 -4.915635
      ESP Fit Center  103 is at  19.624226-27.004233 -4.915635
      ESP Fit Center  104 is at  19.624226-27.423767 -4.915635
      ESP Fit Center  105 is at  22.461781-28.928143 -4.915635
      ESP Fit Center  106 is at  22.809025-28.692706 -4.915635
      ESP Fit Center  107 is at  19.857652-26.796134 -5.278697
      ESP Fit Center  108 is at  19.806914-27.214000 -5.278697
      ESP Fit Center  109 is at  19.857652-27.631866 -5.278697
      ESP Fit Center  110 is at  22.172171-28.846619 -5.278697
      ESP Fit Center  111 is at  20.128226-27.632352 -5.596924
      ESP Fit Center  112 is at  20.303802-28.016811 -5.596924
      ESP Fit Center  113 is at  23.814086-26.747000 -4.164303
      ESP Fit Center  114 is at  23.763348-27.164866 -4.164303
      ESP Fit Center  115 is at  23.612538-27.921127 -4.527365
      ESP Fit Center  116 is at  23.828830-27.561647 -4.527365
      ESP Fit Center  117 is at  23.962787-27.164074 -4.527365
      ESP Fit Center  118 is at  20.505225-25.405401 -4.921310
      ESP Fit Center  119 is at  20.267153-25.747448 -4.921310
      ESP Fit Center  120 is at  23.157480-28.494909 -4.921310
      ESP Fit Center  121 is at  23.487030-28.239819 -4.921310
      ESP Fit Center  122 is at  23.758485-27.923612 -4.921310
      ESP Fit Center  123 is at  23.960731-27.559235 -4.921310
      ESP Fit Center  124 is at  24.085488-27.161604 -4.921310
      ESP Fit Center  125 is at  20.583076-25.262076 -5.331000
      ESP Fit Center  126 is at  20.321914-25.580303 -5.331000
      ESP Fit Center  127 is at  20.127853-25.943365 -5.331000
      ESP Fit Center  128 is at  20.008351-26.337310 -5.331000
      ESP Fit Center  129 is at  22.068000-28.847000 -5.331000
      ESP Fit Center  130 is at  22.477690-28.806649 -5.331000
      ESP Fit Center  131 is at  22.871635-28.687147 -5.331000
      ESP Fit Center  132 is at  23.234697-28.493086 -5.331000
      ESP Fit Center  133 is at  23.552924-28.231924 -5.331000
      ESP Fit Center  134 is at  23.814086-27.913697 -5.331000
      ESP Fit Center  135 is at  24.008147-27.550635 -5.331000
      ESP Fit Center  136 is at  24.127649-27.156690 -5.331000
      ESP Fit Center  137 is at  20.505225-25.405401 -5.740690
      ESP Fit Center  138 is at  20.267153-25.747448 -5.740690
      ESP Fit Center  139 is at  20.102808-26.130417 -5.740690
      ESP Fit Center  140 is at  20.018918-26.538629 -5.740690
      ESP Fit Center  141 is at  20.018918-26.955371 -5.740690
      ESP Fit Center  142 is at  20.102808-27.363583 -5.740690
      ESP Fit Center  143 is at  20.267153-27.746552 -5.740690
      ESP Fit Center  144 is at  20.505225-28.088599 -5.740690
      ESP Fit Center  145 is at  23.157480-28.494909 -5.740690
      ESP Fit Center  146 is at  23.487030-28.239819 -5.740690
      ESP Fit Center  147 is at  23.758485-27.923612 -5.740690
      ESP Fit Center  148 is at  23.960731-27.559235 -5.740690
      ESP Fit Center  149 is at  24.085488-27.161604 -5.740690
      ESP Fit Center  150 is at  20.659462-25.412762 -6.134635
      ESP Fit Center  151 is at  20.405571-25.746750 -6.134635
      ESP Fit Center  152 is at  20.229414-26.127508 -6.134635
      ESP Fit Center  153 is at  20.139226-26.537233 -6.134635
      ESP Fit Center  154 is at  20.139226-26.956767 -6.134635
      ESP Fit Center  155 is at  20.229414-27.366492 -6.134635
      ESP Fit Center  156 is at  23.612538-27.921127 -6.134635
      ESP Fit Center  157 is at  23.828830-27.561647 -6.134635
      ESP Fit Center  158 is at  23.962787-27.164074 -6.134635
      ESP Fit Center  159 is at  20.761036-25.589131 -6.497697
      ESP Fit Center  160 is at  20.521917-25.935553 -6.497697
      ESP Fit Center  161 is at  20.372652-26.329134 -6.497697
      ESP Fit Center  162 is at  20.321914-26.747000 -6.497697
      ESP Fit Center  163 is at  23.763348-27.164866 -6.497697
      ESP Fit Center  164 is at  20.818802-25.944189 -6.815924
      ESP Fit Center  165 is at  20.643226-26.328648 -6.815924
      ESP Fit Center  166 is at  21.364908-25.815955 -7.077086
      ESP Fit Center  167 is at  21.076054-26.132813 -7.077086
      ESP Fit Center  168 is at  21.666182-26.051031 -7.271147
      ESP Fit Center  169 is at  23.977964-26.669869 -4.281303
      ESP Fit Center  170 is at  24.217083-26.323447 -4.281303
      ESP Fit Center  171 is at  24.215538-26.686127 -4.644365
      ESP Fit Center  172 is at  24.431830-26.326647 -4.644365
      ESP Fit Center  173 is at  24.565787-25.929074 -4.644365
      ESP Fit Center  174 is at  24.730649-25.512000 -5.038310
      ESP Fit Center  175 is at  20.705808-24.895417 -5.038310
      ESP Fit Center  176 is at  24.361485-26.688612 -5.038310
      ESP Fit Center  177 is at  24.563731-26.324235 -5.038310
      ESP Fit Center  178 is at  24.688488-25.926604 -5.038310
      ESP Fit Center  179 is at  24.771000-25.512000 -5.448000
      ESP Fit Center  180 is at  24.730649-25.102310 -5.448000
      ESP Fit Center  181 is at  24.611147-24.708365 -5.448000
      ESP Fit Center  182 is at  20.924914-24.345303 -5.448000
      ESP Fit Center  183 is at  20.730853-24.708365 -5.448000
      ESP Fit Center  184 is at  20.611351-25.102310 -5.448000
      ESP Fit Center  185 is at  24.155924-26.996924 -5.448000
      ESP Fit Center  186 is at  24.417086-26.678697 -5.448000
      ESP Fit Center  187 is at  24.611147-26.315635 -5.448000
      ESP Fit Center  188 is at  24.730649-25.921690 -5.448000
      ESP Fit Center  189 is at  24.730649-25.512000 -5.857690
      ESP Fit Center  190 is at  24.688488-25.097396 -5.857690
      ESP Fit Center  191 is at  21.763943-23.662838 -5.857690
      ESP Fit Center  192 is at  21.410276-23.883279 -5.857690
      ESP Fit Center  193 is at  21.108225-24.170401 -5.857690
      ESP Fit Center  194 is at  20.870153-24.512448 -5.857690
      ESP Fit Center  195 is at  20.705808-24.895417 -5.857690
      ESP Fit Center  196 is at  20.621918-25.303629 -5.857690
      ESP Fit Center  197 is at  24.090030-27.004819 -5.857690
      ESP Fit Center  198 is at  24.361485-26.688612 -5.857690
      ESP Fit Center  199 is at  24.563731-26.324235 -5.857690
      ESP Fit Center  200 is at  24.688488-25.926604 -5.857690
      ESP Fit Center  201 is at  22.357119-23.597411 -6.251635
      ESP Fit Center  202 is at  21.952878-23.709649 -6.251635
      ESP Fit Center  203 is at  21.582215-23.906162 -6.251635
      ESP Fit Center  204 is at  21.262462-24.177762 -6.251635
      ESP Fit Center  205 is at  21.008571-24.511750 -6.251635
      ESP Fit Center  206 is at  20.832414-24.892508 -6.251635
      ESP Fit Center  207 is at  20.742226-25.302233 -6.251635
      ESP Fit Center  208 is at  24.215538-26.686127 -6.251635
      ESP Fit Center  209 is at  24.431830-26.326647 -6.251635
      ESP Fit Center  210 is at  24.565787-25.929074 -6.251635
      ESP Fit Center  211 is at  21.679110-24.074999 -6.614697
      ESP Fit Center  212 is at  21.364036-24.354131 -6.614697
      ESP Fit Center  213 is at  21.124917-24.700553 -6.614697
      ESP Fit Center  214 is at  20.975652-25.094134 -6.614697
      ESP Fit Center  215 is at  20.924914-25.512000 -6.614697
      ESP Fit Center  216 is at  23.977964-26.669869 -6.614697
      ESP Fit Center  217 is at  21.421802-24.709189 -6.932924
      ESP Fit Center  218 is at  21.246226-25.093648 -6.932924
      ESP Fit Center  219 is at  21.186076-25.512000 -6.932924
      ESP Fit Center  220 is at  21.524168-25.297620 -7.194086
      ESP Fit Center  221 is at  21.524168-25.726380 -7.194086
      ESP Fit Center  222 is at  24.313538-25.904127 -3.491365
      ESP Fit Center  223 is at  24.529830-25.544647 -3.491365
      ESP Fit Center  224 is at  21.508276-23.101279 -3.885310
      ESP Fit Center  225 is at  21.206225-23.388401 -3.885310
      ESP Fit Center  226 is at  20.968153-23.730448 -3.885310
      ESP Fit Center  227 is at  23.858480-26.477909 -3.885310
      ESP Fit Center  228 is at  24.188030-26.222819 -3.885310
      ESP Fit Center  229 is at  24.459485-25.906612 -3.885310
      ESP Fit Center  230 is at  24.661731-25.542235 -3.885310
      ESP Fit Center  231 is at  24.786488-25.144604 -3.885310
      ESP Fit Center  232 is at  21.284076-23.245076 -4.295000
      ESP Fit Center  233 is at  21.022914-23.563303 -4.295000
      ESP Fit Center  234 is at  20.828853-23.926365 -4.295000
      ESP Fit Center  235 is at  20.709351-24.320310 -4.295000
      ESP Fit Center  236 is at  24.515086-25.896697 -4.295000
      ESP Fit Center  237 is at  24.709147-25.533635 -4.295000
      ESP Fit Center  238 is at  24.828649-25.139690 -4.295000
      ESP Fit Center  239 is at  21.508276-23.101279 -4.704690
      ESP Fit Center  240 is at  21.206225-23.388401 -4.704690
      ESP Fit Center  241 is at  20.968153-23.730448 -4.704690
      ESP Fit Center  242 is at  20.803808-24.113417 -4.704690
      ESP Fit Center  243 is at  20.719918-24.521629 -4.704690
      ESP Fit Center  244 is at  20.719918-24.938371 -4.704690
      ESP Fit Center  245 is at  24.661731-25.542235 -4.704690
      ESP Fit Center  246 is at  24.786488-25.144604 -4.704690
      ESP Fit Center  247 is at  21.360462-23.395762 -5.098635
      ESP Fit Center  248 is at  21.106571-23.729750 -5.098635
      ESP Fit Center  249 is at  20.930414-24.110508 -5.098635
      ESP Fit Center  250 is at  20.840226-24.520233 -5.098635
      ESP Fit Center  251 is at  21.777110-23.292999 -5.461697
      ESP Fit Center  252 is at  21.462036-23.572131 -5.461697
      ESP Fit Center  253 is at  21.222917-23.918553 -5.461697
      ESP Fit Center  254 is at  21.796581-23.607769 -5.779924
      ESP Fit Center  255 is at  22.942198-27.261811 -1.469076
      ESP Fit Center  256 is at  20.146917-25.647553 -1.787303
      ESP Fit Center  257 is at  22.684890-27.896001 -1.787303
      ESP Fit Center  258 is at  22.999964-27.616869 -1.787303
      ESP Fit Center  259 is at  23.239083-27.270447 -1.787303
      ESP Fit Center  260 is at  20.284462-25.124762 -2.150365
      ESP Fit Center  261 is at  20.030571-25.458750 -2.150365
      ESP Fit Center  262 is at  19.854414-25.839508 -2.150365
      ESP Fit Center  263 is at  19.764226-26.249233 -2.150365
      ESP Fit Center  264 is at  22.212044-28.328429 -2.150365
      ESP Fit Center  265 is at  22.601781-28.173143 -2.150365
      ESP Fit Center  266 is at  22.949025-27.937706 -2.150365
      ESP Fit Center  267 is at  23.237538-27.633127 -2.150365
      ESP Fit Center  268 is at  23.453830-27.273647 -2.150365
      ESP Fit Center  269 is at  20.130225-25.117401 -2.544310
      ESP Fit Center  270 is at  19.892153-25.459448 -2.544310
      ESP Fit Center  271 is at  19.727808-25.842417 -2.544310
      ESP Fit Center  272 is at  19.643918-26.250629 -2.544310
      ESP Fit Center  273 is at  19.643918-26.667371 -2.544310
      ESP Fit Center  274 is at  19.727808-27.075583 -2.544310
      ESP Fit Center  275 is at  19.892153-27.458552 -2.544310
      ESP Fit Center  276 is at  22.408327-28.390440 -2.544310
      ESP Fit Center  277 is at  22.782480-28.206909 -2.544310
      ESP Fit Center  278 is at  23.112030-27.951819 -2.544310
      ESP Fit Center  279 is at  23.383485-27.635612 -2.544310
      ESP Fit Center  280 is at  23.585731-27.271235 -2.544310
      ESP Fit Center  281 is at  23.710488-26.873604 -2.544310
      ESP Fit Center  282 is at  20.208076-24.974076 -2.954000
      ESP Fit Center  283 is at  19.946914-25.292303 -2.954000
      ESP Fit Center  284 is at  19.752853-25.655365 -2.954000
      ESP Fit Center  285 is at  19.633351-26.049310 -2.954000
      ESP Fit Center  286 is at  19.593000-26.459000 -2.954000
      ESP Fit Center  287 is at  19.633351-26.868690 -2.954000
      ESP Fit Center  288 is at  19.752853-27.262635 -2.954000
      ESP Fit Center  289 is at  23.177924-27.943924 -2.954000
      ESP Fit Center  290 is at  23.439086-27.625697 -2.954000
      ESP Fit Center  291 is at  23.633147-27.262635 -2.954000
      ESP Fit Center  292 is at  23.752649-26.868690 -2.954000
      ESP Fit Center  293 is at  20.130225-25.117401 -3.363690
      ESP Fit Center  294 is at  19.892153-25.459448 -3.363690
      ESP Fit Center  295 is at  19.727808-25.842417 -3.363690
      ESP Fit Center  296 is at  19.643918-26.250629 -3.363690
      ESP Fit Center  297 is at  19.643918-26.667371 -3.363690
      ESP Fit Center  298 is at  23.585731-27.271235 -3.363690
      ESP Fit Center  299 is at  23.710488-26.873604 -3.363690
      ESP Fit Center  300 is at  20.284462-25.124762 -3.757635
      ESP Fit Center  301 is at  20.030571-25.458750 -3.757635
      ESP Fit Center  302 is at  19.854414-25.839508 -3.757635
      ESP Fit Center  303 is at  20.386036-25.301131 -4.120697
      ESP Fit Center  304 is at  20.146917-25.647553 -4.120697
      ESP Fit Center  305 is at  20.365226-24.977233 -2.271365
      ESP Fit Center  306 is at  20.493153-24.187448 -2.665310
      ESP Fit Center  307 is at  20.328808-24.570417 -2.665310
      ESP Fit Center  308 is at  20.809076-23.702076 -3.075000
      ESP Fit Center  309 is at  20.547914-24.020303 -3.075000
      ESP Fit Center  310 is at  20.353853-24.383365 -3.075000
      ESP Fit Center  311 is at  20.234351-24.777310 -3.075000
      ESP Fit Center  312 is at  23.778924-26.671924 -3.075000
      ESP Fit Center  313 is at  24.040086-26.353697 -3.075000
      ESP Fit Center  314 is at  24.234147-25.990635 -3.075000
      ESP Fit Center  315 is at  21.386943-23.337838 -3.484690
      ESP Fit Center  316 is at  21.033276-23.558279 -3.484690
      ESP Fit Center  317 is at  20.731225-23.845401 -3.484690
      ESP Fit Center  318 is at  20.493153-24.187448 -3.484690
      ESP Fit Center  319 is at  20.328808-24.570417 -3.484690
      ESP Fit Center  320 is at  20.244918-24.978629 -3.484690
      ESP Fit Center  321 is at  23.713030-26.679819 -3.484690
      ESP Fit Center  322 is at  23.984485-26.363612 -3.484690
      ESP Fit Center  323 is at  20.885462-23.852762 -3.878635
      ESP Fit Center  324 is at  20.631571-24.186750 -3.878635
      ESP Fit Center  325 is at  20.455414-24.567508 -3.878635
      ESP Fit Center  326 is at  20.365226-24.977233 -3.878635
      ESP Fit Center  327 is at  20.598652-24.769134 -4.241697
      ESP Fit Center  328 is at  20.547914-25.187000 -4.241697
      ESP Fit Center  329 is at  22.143718-23.291840 -0.061914
      ESP Fit Center  330 is at  21.759908-23.482955 -0.061914
      ESP Fit Center  331 is at  22.251673-22.944190 -0.323076
      ESP Fit Center  332 is at  21.846140-23.063265 -0.323076
      ESP Fit Center  333 is at  21.490581-23.291769 -0.323076
      ESP Fit Center  334 is at  21.471110-22.976999 -0.641303
      ESP Fit Center  335 is at  21.156036-23.256131 -0.641303
      ESP Fit Center  336 is at  21.054462-23.079762 -1.004365
      ESP Fit Center  337 is at  20.800571-23.413750 -1.004365
      ESP Fit Center  338 is at  20.662153-23.414448 -1.398310
      ESP Fit Center  339 is at  20.497808-23.797417 -1.398310
      ESP Fit Center  340 is at  20.716914-23.247303 -1.808000
      ESP Fit Center  341 is at  20.522853-23.610365 -1.808000
      ESP Fit Center  342 is at  20.403351-24.004310 -1.808000
      ESP Fit Center  343 is at  20.363000-24.414000 -1.808000
      ESP Fit Center  344 is at  20.662153-23.414448 -2.217690
      ESP Fit Center  345 is at  20.497808-23.797417 -2.217690
      ESP Fit Center  346 is at  20.413918-24.205629 -2.217690
      ESP Fit Center  347 is at  20.413918-24.622371 -2.217690
      ESP Fit Center  348 is at  20.800571-23.413750 -2.611635
      ESP Fit Center  349 is at  20.624414-23.794508 -2.611635
      ESP Fit Center  350 is at  20.916917-23.602553 -2.974697
      ESP Fit Center  351 is at  22.952581-25.826231  0.090924
      ESP Fit Center  352 is at  25.817731-25.516235 -0.984310
      ESP Fit Center  353 is at  26.025000-24.704000 -1.394000
      ESP Fit Center  354 is at  25.671086-25.870697 -1.394000
      ESP Fit Center  355 is at  25.865147-25.507635 -1.394000
      ESP Fit Center  356 is at  25.984649-25.113690 -1.394000
      ESP Fit Center  357 is at  25.615485-25.880612 -1.803690
      ESP Fit Center  358 is at  25.817731-25.516235 -1.803690
      ESP Fit Center  359 is at  25.942488-25.118604 -1.803690
      ESP Fit Center  360 is at  25.469538-25.878127 -2.197635
      ESP Fit Center  361 is at  25.685830-25.518647 -2.197635
      ESP Fit Center  362 is at  25.231964-25.861869 -2.560697
      ESP Fit Center  363 is at  24.541860-26.054735 -2.878924
      ESP Fit Center  364 is at  24.897419-25.826231 -2.878924
      ESP Fit Center  365 is at  24.445042-25.748385 -3.140086
      ESP Fit Center  366 is at  25.276071-23.536000 -3.736327
      ESP Fit Center  367 is at  25.229335-23.121205 -3.736327
      ESP Fit Center  368 is at  22.249771-22.078611 -3.736327
      ESP Fit Center  369 is at  21.954611-22.373771 -3.736327
      ESP Fit Center  370 is at  21.732530-22.727210 -3.736327
      ESP Fit Center  371 is at  24.869389-24.698229 -3.736327
      ESP Fit Center  372 is at  25.091470-24.344790 -3.736327
      ESP Fit Center  373 is at  25.229335-23.950795 -3.736327
      ESP Fit Center  374 is at  25.361263-23.536000 -4.137124
      ESP Fit Center  375 is at  25.315690-23.116966 -4.137124
      ESP Fit Center  376 is at  25.181103-22.717526 -4.137124
      ESP Fit Center  377 is at  24.963795-22.356356 -4.137124
      ESP Fit Center  378 is at  24.673926-22.050346 -4.137124
      ESP Fit Center  379 is at  24.325051-21.813803 -4.137124
      ESP Fit Center  380 is at  23.933483-21.657788 -4.137124
      ESP Fit Center  381 is at  23.517531-21.589596 -4.137124
      ESP Fit Center  382 is at  23.096644-21.612416 -4.137124
      ESP Fit Center  383 is at  22.690503-21.725180 -4.137124
      ESP Fit Center  384 is at  22.318099-21.922617 -4.137124
      ESP Fit Center  385 is at  21.996844-22.195493 -4.137124
      ESP Fit Center  386 is at  21.741760-22.531050 -4.137124
      ESP Fit Center  387 is at  21.564775-22.913597 -4.137124
      ESP Fit Center  388 is at  24.963795-24.715644 -4.137124
      ESP Fit Center  389 is at  25.181103-24.354474 -4.137124
      ESP Fit Center  390 is at  25.315690-23.955034 -4.137124
      ESP Fit Center  391 is at  25.361263-23.536000 -4.546876
      ESP Fit Center  392 is at  25.315690-23.116966 -4.546876
      ESP Fit Center  393 is at  25.181103-22.717526 -4.546876
      ESP Fit Center  394 is at  24.963795-22.356356 -4.546876
      ESP Fit Center  395 is at  24.673926-22.050346 -4.546876
      ESP Fit Center  396 is at  24.325051-21.813803 -4.546876
      ESP Fit Center  397 is at  23.933483-21.657788 -4.546876
      ESP Fit Center  398 is at  23.517531-21.589596 -4.546876
      ESP Fit Center  399 is at  23.096644-21.612416 -4.546876
      ESP Fit Center  400 is at  22.690503-21.725180 -4.546876
      ESP Fit Center  401 is at  22.318099-21.922617 -4.546876
      ESP Fit Center  402 is at  21.996844-22.195493 -4.546876
      ESP Fit Center  403 is at  21.741760-22.531050 -4.546876
      ESP Fit Center  404 is at  21.564775-22.913597 -4.546876
      ESP Fit Center  405 is at  24.963795-24.715644 -4.546876
      ESP Fit Center  406 is at  25.181103-24.354474 -4.546876
      ESP Fit Center  407 is at  25.315690-23.955034 -4.546876
      ESP Fit Center  408 is at  25.276071-23.536000 -4.947673
      ESP Fit Center  409 is at  25.229335-23.121205 -4.947673
      ESP Fit Center  410 is at  25.091470-22.727210 -4.947673
      ESP Fit Center  411 is at  24.869389-22.373771 -4.947673
      ESP Fit Center  412 is at  24.574229-22.078611 -4.947673
      ESP Fit Center  413 is at  24.220790-21.856530 -4.947673
      ESP Fit Center  414 is at  23.826795-21.718665 -4.947673
      ESP Fit Center  415 is at  23.412000-21.671929 -4.947673
      ESP Fit Center  416 is at  22.997205-21.718665 -4.947673
      ESP Fit Center  417 is at  22.603210-21.856530 -4.947673
      ESP Fit Center  418 is at  22.249771-22.078611 -4.947673
      ESP Fit Center  419 is at  21.954611-22.373771 -4.947673
      ESP Fit Center  420 is at  21.732530-22.727210 -4.947673
      ESP Fit Center  421 is at  24.869389-24.698229 -4.947673
      ESP Fit Center  422 is at  25.091470-24.344790 -4.947673
      ESP Fit Center  423 is at  25.229335-23.950795 -4.947673
      ESP Fit Center  424 is at  25.109410-23.536000 -5.322000
      ESP Fit Center  425 is at  25.056083-23.113871 -5.322000
      ESP Fit Center  426 is at  24.899452-22.718267 -5.322000
      ESP Fit Center  427 is at  24.649358-22.374043 -5.322000
      ESP Fit Center  428 is at  24.321518-22.102830 -5.322000
      ESP Fit Center  429 is at  23.936528-21.921667 -5.322000
      ESP Fit Center  430 is at  23.518581-21.841940 -5.322000
      ESP Fit Center  431 is at  23.093937-21.868656 -5.322000
      ESP Fit Center  432 is at  22.689278-22.000138 -5.322000
      ESP Fit Center  433 is at  22.330030-22.228123 -5.322000
      ESP Fit Center  434 is at  22.038767-22.538288 -5.322000
      ESP Fit Center  435 is at  21.833788-22.911142 -5.322000
      ESP Fit Center  436 is at  24.649358-24.697957 -5.322000
      ESP Fit Center  437 is at  24.899452-24.353733 -5.322000
      ESP Fit Center  438 is at  25.056083-23.958129 -5.322000
      ESP Fit Center  439 is at  24.868564-23.536000 -5.653496
      ESP Fit Center  440 is at  24.809563-23.125639 -5.653496
      ESP Fit Center  441 is at  24.637339-22.748522 -5.653496
      ESP Fit Center  442 is at  24.365846-22.435202 -5.653496
      ESP Fit Center  443 is at  24.017078-22.211063 -5.653496
      ESP Fit Center  444 is at  23.619291-22.094262 -5.653496
      ESP Fit Center  445 is at  23.204709-22.094262 -5.653496
      ESP Fit Center  446 is at  22.806922-22.211063 -5.653496
      ESP Fit Center  447 is at  22.458154-22.435202 -5.653496
      ESP Fit Center  448 is at  22.186661-22.748522 -5.653496
      ESP Fit Center  449 is at  22.014437-23.125639 -5.653496
      ESP Fit Center  450 is at  24.637339-24.323478 -5.653496
      ESP Fit Center  451 is at  24.809563-23.946361 -5.653496
      ESP Fit Center  452 is at  24.564059-23.536000 -5.927673
      ESP Fit Center  453 is at  24.486263-23.119828 -5.927673
      ESP Fit Center  454 is at  24.263382-22.759863 -5.927673
      ESP Fit Center  455 is at  23.925517-22.504719 -5.927673
      ESP Fit Center  456 is at  23.518299-22.388855 -5.927673
      ESP Fit Center  457 is at  23.096724-22.427920 -5.927673
      ESP Fit Center  458 is at  22.717729-22.616637 -5.927673
      ESP Fit Center  459 is at  22.432500-22.929519 -5.927673
      ESP Fit Center  460 is at  22.279557-23.324310 -5.927673
      ESP Fit Center  461 is at  24.486263-23.952172 -5.927673
      ESP Fit Center  462 is at  24.209204-23.536000 -6.132549
      ESP Fit Center  463 is at  24.102399-23.137398 -6.132549
      ESP Fit Center  464 is at  23.810602-22.845601 -6.132549
      ESP Fit Center  465 is at  23.412000-22.738796 -6.132549
      ESP Fit Center  466 is at  23.013398-22.845601 -6.132549
      ESP Fit Center  467 is at  22.721601-23.137398 -6.132549
      ESP Fit Center  468 is at  23.819507-23.536000 -6.259169
      ESP Fit Center  469 is at  23.615753-23.183089 -6.259169
      ESP Fit Center  470 is at  23.208247-23.183089 -6.259169
      ESP Fit Center  471 is at  25.197052-24.579160  1.958610
      ESP Fit Center  472 is at  25.631868-24.579160  1.901365
      ESP Fit Center  473 is at  25.414460-24.202598  1.901365
      ESP Fit Center  474 is at  24.979644-24.955722  1.901365
      ESP Fit Center  475 is at  25.414460-24.955722  1.901365
      ESP Fit Center  476 is at  26.037052-24.579160  1.733533
      ESP Fit Center  477 is at  25.924513-24.159160  1.733533
      ESP Fit Center  478 is at  25.617052-23.851699  1.733533
      ESP Fit Center  479 is at  24.777052-25.306621  1.733533
      ESP Fit Center  480 is at  25.197052-25.419160  1.733533
      ESP Fit Center  481 is at  25.617052-25.306621  1.733533
      ESP Fit Center  482 is at  25.924513-24.999160  1.733533
      ESP Fit Center  483 is at  26.384991-24.579160  1.466549
      ESP Fit Center  484 is at  26.304772-24.150027  1.466549
      ESP Fit Center  485 is at  26.074949-23.778850  1.466549
      ESP Fit Center  486 is at  25.726562-23.515760  1.466549
      ESP Fit Center  487 is at  24.871957-25.721751  1.466549
      ESP Fit Center  488 is at  25.306661-25.762032  1.466549
      ESP Fit Center  489 is at  25.726562-25.642560  1.466549
      ESP Fit Center  490 is at  26.074949-25.379470  1.466549
      ESP Fit Center  491 is at  26.304772-25.008293  1.466549
      ESP Fit Center  492 is at  26.651974-24.579160  1.118610
      ESP Fit Center  493 is at  26.587336-24.150314  1.118610
      ESP Fit Center  494 is at  26.399165-23.759573  1.118610
      ESP Fit Center  495 is at  26.104181-23.441656  1.118610
      ESP Fit Center  496 is at  24.873301-25.997605  1.118610
      ESP Fit Center  497 is at  25.305778-26.030014  1.118610
      ESP Fit Center  498 is at  25.728595-25.933509  1.118610
      ESP Fit Center  499 is at  26.104181-25.716664  1.118610
      ESP Fit Center  500 is at  26.399165-25.398747  1.118610
      ESP Fit Center  501 is at  26.587336-25.008006  1.118610
      ESP Fit Center  502 is at  26.819807-24.579160  0.713426
      ESP Fit Center  503 is at  26.764513-24.159160  0.713426
[...]
 5431 Fit       0.003632
 5432 Fit       0.003142
 5433 Fit       0.002317
 5434 Fit       0.001133
 5435 Fit      -0.000445
 5436 Fit      -0.002473
 5437 Fit      -0.004122
 5438 Fit      -0.001753
 5439 Fit       0.000102
 5440 Fit       0.001516
 5441 Fit       0.002537
 5442 Fit       0.003194
 5443 Fit       0.003506
 5444 Fit       0.003480
 5445 Fit       0.003115
 5446 Fit       0.002401
 5447 Fit       0.001317
 5448 Fit      -0.000171
 5449 Fit      -0.002121
 5450 Fit      -0.002093
 5451 Fit      -0.000157
 5452 Fit       0.001299
 5453 Fit       0.002328
 5454 Fit       0.002962
 5455 Fit       0.003221
 5456 Fit       0.003112
 5457 Fit       0.002633
 5458 Fit       0.001768
 5459 Fit       0.000489
 5460 Fit      -0.001254
 5461 Fit      -0.002278
 5462 Fit      -0.000325
 5463 Fit       0.001125
 5464 Fit       0.002127
 5465 Fit       0.002716
 5466 Fit       0.002910
 5467 Fit       0.002717
 5468 Fit       0.002132
 5469 Fit       0.001138
 5470 Fit      -0.000302
 5471 Fit      -0.002160
 5472 Fit      -0.000175
 5473 Fit       0.001243
 5474 Fit       0.002154
 5475 Fit       0.002594
 5476 Fit       0.002582
 5477 Fit       0.002125
 5478 Fit       0.001214
 5479 Fit      -0.000182
 5480 Fit       0.000229
 5481 Fit       0.001541
 5482 Fit       0.002303
 5483 Fit       0.002556
 5484 Fit       0.002327
 5485 Fit       0.001641
 5486 Fit       0.001796
 5487 Fit       0.002629
 5488 Fit       0.001316
 5489 Fit       0.002313
 5490 Fit       0.002623
 5491 Fit       0.002294
 5492 Fit       0.001436
 5493 Fit       0.000177
 5494 Fit      -0.001367
 5495 Fit      -0.003109
 5496 Fit      -0.002693
 5497 Fit      -0.000792
 5498 Fit       0.000716
 5499 Fit       0.001746
 5500 Fit       0.002258
 5501 Fit       0.002258
 5502 Fit       0.001798
 5503 Fit       0.000957
 5504 Fit      -0.000182
 5505 Fit      -0.001544
 5506 Fit      -0.003069
 5507 Fit      -0.004711
 5508 Fit      -0.003467
 5509 Fit      -0.001653
 5510 Fit      -0.000106
 5511 Fit       0.001092
 5512 Fit       0.001881
 5513 Fit       0.002235
 5514 Fit       0.002164
 5515 Fit       0.001711
 5516 Fit       0.000938
 5517 Fit      -0.000090
 5518 Fit      -0.001310
 5519 Fit      -0.002664
 5520 Fit      -0.004103
 5521 Fit      -0.005573
 5522 Fit      -0.005606
 5523 Fit      -0.003905
 5524 Fit      -0.002262
 5525 Fit      -0.000769
 5526 Fit       0.000489
 5527 Fit       0.001440
 5528 Fit       0.002039
 5529 Fit       0.002266
 5530 Fit       0.002135
 5531 Fit       0.001683
 5532 Fit       0.000961
 5533 Fit       0.000028
 5534 Fit      -0.001055
 5535 Fit      -0.002226
 5536 Fit      -0.003418
 5537 Fit      -0.004545
 5538 Fit      -0.003579
 5539 Fit      -0.005397
 5540 Fit      -0.004075
 5541 Fit      -0.002631
 5542 Fit      -0.001209
 5543 Fit       0.000073
 5544 Fit       0.001115
 5545 Fit       0.001842
 5546 Fit       0.002214
 5547 Fit       0.002225
 5548 Fit       0.001901
 5549 Fit       0.001294
 5550 Fit       0.000472
 5551 Fit      -0.000491
 5552 Fit      -0.001504
 5553 Fit      -0.002462
 5554 Fit      -0.003221
 5555 Fit      -0.001811
 5556 Fit      -0.001589
 5557 Fit      -0.004203
 5558 Fit      -0.003691
 5559 Fit      -0.002734
 5560 Fit      -0.001560
 5561 Fit      -0.000360
 5562 Fit       0.000714
 5563 Fit       0.001541
 5564 Fit       0.002042
 5565 Fit       0.002185
 5566 Fit       0.001982
 5567 Fit       0.001485
 5568 Fit       0.000773
 5569 Fit      -0.000052
 5570 Fit      -0.000864
 5571 Fit      -0.001512
 5572 Fit      -0.000588
 5573 Fit      -0.000549
 5574 Fit      -0.000318
 5575 Fit      -0.001096
 5576 Fit      -0.001921
 5577 Fit      -0.002273
 5578 Fit      -0.001980
 5579 Fit      -0.001201
 5580 Fit      -0.000198
 5581 Fit       0.000781
 5582 Fit       0.001539
 5583 Fit       0.001950
 5584 Fit       0.001970
 5585 Fit       0.001636
 5586 Fit       0.001047
 5587 Fit       0.000355
 5588 Fit      -0.000253
 5589 Fit       0.000202
 5590 Fit       0.000027
 5591 Fit      -0.000186
 5592 Fit      -0.000631
 5593 Fit      -0.000852
 5594 Fit      -0.000467
 5595 Fit       0.000351
 5596 Fit       0.001180
 5597 Fit       0.001662
 5598 Fit       0.001646
 5599 Fit       0.001216
 5600 Fit       0.000633
 5601 Fit       0.000642
 5602 Fit       0.000275
 5603 Fit       0.000144
 5604 Fit       0.000685
 5605 Fit       0.001268
 5606 Fit       0.001137
 5607 Fit       0.000790
 5608 Fit      -0.018520
 5609 Fit      -0.013736
 5610 Fit      -0.014861
 5611 Fit      -0.016497
 5612 Fit      -0.018539
 5613 Fit      -0.013113
 5614 Fit      -0.011043
 5615 Fit      -0.011864
 5616 Fit      -0.012993
 5617 Fit      -0.014331
 5618 Fit      -0.015684
 5619 Fit      -0.016795
 5620 Fit      -0.017420
 5621 Fit      -0.017425
 5622 Fit      -0.016855
 5623 Fit      -0.015935
 5624 Fit      -0.014978
 5625 Fit      -0.014257
 5626 Fit      -0.010301
 5627 Fit      -0.010543
 5628 Fit      -0.008774
 5629 Fit      -0.009392
 5630 Fit      -0.010186
 5631 Fit      -0.011076
 5632 Fit      -0.011922
 5633 Fit      -0.012564
 5634 Fit      -0.012875
 5635 Fit      -0.012818
 5636 Fit      -0.012470
 5637 Fit      -0.011996
 5638 Fit      -0.011574
 5639 Fit      -0.011328
 5640 Fit      -0.011283
 5641 Fit      -0.007371
 5642 Fit      -0.007782
 5643 Fit      -0.008050
 5644 Fit      -0.008344
 5645 Fit      -0.006893
 5646 Fit      -0.007418
 5647 Fit      -0.008039
 5648 Fit      -0.008681
 5649 Fit      -0.009228
 5650 Fit      -0.009572
 5651 Fit      -0.009664
 5652 Fit      -0.009546
 5653 Fit      -0.009328
 5654 Fit      -0.009126
 5655 Fit      -0.009004
 5656 Fit      -0.008924
 5657 Fit      -0.008747
 5658 Fit      -0.003753
 5659 Fit      -0.004945
 5660 Fit      -0.005656
 5661 Fit      -0.006106
 5662 Fit      -0.006476
 5663 Fit      -0.005373
 5664 Fit      -0.005840
 5665 Fit      -0.006339
 5666 Fit      -0.006805
 5667 Fit      -0.007152
 5668 Fit      -0.007324
 5669 Fit      -0.007335
 5670 Fit      -0.007249
 5671 Fit      -0.007131
 5672 Fit      -0.006982
 5673 Fit      -0.006707
 5674 Fit      -0.006125
 5675 Fit      -0.005035
 5676 Fit      -0.001700
 5677 Fit      -0.002972
 5678 Fit      -0.003879
 5679 Fit      -0.004489
 5680 Fit      -0.004945
 5681 Fit      -0.004193
 5682 Fit      -0.004644
 5683 Fit      -0.005070
 5684 Fit      -0.005407
 5685 Fit      -0.005598
 5686 Fit      -0.005640
 5687 Fit      -0.005564
 5688 Fit      -0.005368
 5689 Fit      -0.004957
 5690 Fit      -0.004183
 5691 Fit      -0.002987
 5692 Fit      -0.001628
 5693 Fit      -0.000732
 5694 Fit      -0.000771
 5695 Fit      -0.001520
 5696 Fit      -0.002421
 5697 Fit      -0.003162
 5698 Fit      -0.003722
 5699 Fit      -0.003339
 5700 Fit      -0.003811
 5701 Fit      -0.004167
 5702 Fit      -0.004334
 5703 Fit      -0.004275
 5704 Fit      -0.003944
 5705 Fit      -0.003238
 5706 Fit      -0.002240
 5707 Fit      -0.001499
 5708 Fit      -0.001539
 5709 Fit      -0.002130
 5710 Fit      -0.002784
 5711 Fit      -0.002805
 5712 Fit      -0.003265
 5713 Fit      -0.003288
 5714 Fit      -0.002728
 5715 Fit      -0.002052
 5716 Fit      -0.002202
 5717 Fit      -0.002596
 5718 Fit       0.012340
 5719 Fit       0.011925
 5720 Fit       0.011052
 5721 Fit       0.011079
 5722 Fit       0.011184
 5723 Fit       0.010459
 5724 Fit       0.010033
 5725 Fit       0.009760
 5726 Fit       0.009780
 5727 Fit       0.010423
 5728 Fit       0.011102
 5729 Fit       0.010177
 5730 Fit       0.009709
 5731 Fit       0.009429
 5732 Fit       0.009165
 5733 Fit       0.008851
 5734 Fit       0.008539
 5735 Fit       0.008395
 5736 Fit       0.008654
 5737 Fit       0.009538
 5738 Fit       0.009985
 5739 Fit       0.009166
 5740 Fit       0.008810
 5741 Fit       0.008679
 5742 Fit       0.008601
 5743 Fit       0.008457
 5744 Fit       0.008179
 5745 Fit       0.007770
 5746 Fit       0.007301
 5747 Fit       0.006918
 5748 Fit       0.006820
 5749 Fit       0.007234
 5750 Fit       0.007997
 5751 Fit       0.007578
 5752 Fit       0.007507
 5753 Fit       0.007605
 5754 Fit       0.007732
 5755 Fit       0.007775
 5756 Fit       0.007651
 5757 Fit       0.007318
 5758 Fit       0.006788
 5759 Fit       0.006128
 5760 Fit       0.005465
 5761 Fit       0.004970
 5762 Fit       0.004865
 5763 Fit       0.006286
 5764 Fit       0.005825
 5765 Fit       0.005784
 5766 Fit       0.005996
 5767 Fit       0.006334
 5768 Fit       0.006686
 5769 Fit       0.006952
 5770 Fit       0.007046
 5771 Fit       0.006901
 5772 Fit       0.006487
 5773 Fit       0.005818
 5774 Fit       0.004959
 5775 Fit       0.004020
 5776 Fit       0.003150
 5777 Fit       0.002529
 5778 Fit       0.003482
 5779 Fit       0.003448
 5780 Fit       0.003755
 5781 Fit       0.004274
 5782 Fit       0.004898
 5783 Fit       0.005524
 5784 Fit       0.006050
 5785 Fit       0.006374
 5786 Fit       0.006403
 5787 Fit       0.006076
 5788 Fit       0.005377
 5789 Fit       0.004353
 5790 Fit       0.003108
 5791 Fit       0.001781
 5792 Fit       0.001446
 5793 Fit       0.002299
 5794 Fit       0.003247
 5795 Fit       0.004201
 5796 Fit       0.005058
 5797 Fit       0.005703
 5798 Fit       0.006009
 5799 Fit       0.005867
 5800 Fit       0.005221
 5801 Fit       0.004091
 5802 Fit       0.002573
 5803 Fit       0.002079
 5804 Fit       0.003445
 5805 Fit       0.004670
 5806 Fit       0.005588
 5807 Fit       0.011705
 5808 Fit       0.011678
 5809 Fit       0.011894
 5810 Fit       0.012217
 5811 Fit       0.011034
 5812 Fit       0.010958
 5813 Fit       0.011069
 5814 Fit       0.011324
 5815 Fit       0.011639
 5816 Fit       0.011902
 5817 Fit       0.012059
 5818 Fit       0.010656
 5819 Fit       0.010413
 5820 Fit       0.010319
 5821 Fit       0.010398
 5822 Fit       0.010643
 5823 Fit       0.011018
 5824 Fit       0.011443
 5825 Fit       0.011793
 5826 Fit       0.011944
 5827 Fit       0.011873
 5828 Fit       0.011718
 5829 Fit       0.010467
 5830 Fit       0.010028
 5831 Fit       0.009743
 5832 Fit       0.009645
 5833 Fit       0.009741
 5834 Fit       0.010032
 5835 Fit       0.010501
 5836 Fit       0.011101
 5837 Fit       0.011714
 5838 Fit       0.012150
 5839 Fit       0.012230
 5840 Fit       0.011933
 5841 Fit       0.011459
 5842 Fit       0.009870
 5843 Fit       0.009315
 5844 Fit       0.008975
 5845 Fit       0.008851
 5846 Fit       0.008943
 5847 Fit       0.009258
 5848 Fit       0.009809
 5849 Fit       0.010590
 5850 Fit       0.011533
 5851 Fit       0.012457
 5852 Fit       0.011469
 5853 Fit       0.009310
 5854 Fit       0.008554
 5855 Fit       0.008083
 5856 Fit       0.007875
 5857 Fit       0.007925
 5858 Fit       0.008256
 5859 Fit       0.008913
 5860 Fit       0.009952
 5861 Fit       0.007602
 5862 Fit       0.006976
 5863 Fit       0.006650
 5864 Fit       0.006616
 5865 Fit       0.006911
 5866 Fit       0.007622
 5867 Fit       0.006016
 5868 Fit       0.005330
 5869 Fit       0.004970
 5870 Fit       0.004953
 5871 Fit       0.005366
 5872 Fit       0.003198
 5873 Fit       0.002696
 5874 Fit       0.002622
 5875 Fit       0.012326
 5876 Fit       0.011485
 5877 Fit       0.014274
 5878 Fit       0.012929
 5879 Fit       0.011781
 5880 Fit       0.010849
 5881 Fit       0.016744
 5882 Fit       0.015067
 5883 Fit       0.013588
 5884 Fit       0.012253
 5885 Fit       0.011060
 5886 Fit       0.010043
 5887 Fit       0.018510
 5888 Fit       0.016598
 5889 Fit       0.014864
 5890 Fit       0.013272
 5891 Fit       0.011801
 5892 Fit       0.010449
 5893 Fit       0.009241
 5894 Fit       0.022904
 5895 Fit       0.020559
 5896 Fit       0.018373
 5897 Fit       0.016362
 5898 Fit       0.014511
 5899 Fit       0.012796
 5900 Fit       0.011193
 5901 Fit       0.009692
 5902 Fit       0.008298
 5903 Fit       0.007040
 5904 Fit       0.028367
 5905 Fit       0.025434
 5906 Fit       0.022574
 5907 Fit       0.019924
 5908 Fit       0.017519
 5909 Fit       0.015342
 5910 Fit       0.013351
 5911 Fit       0.011504
 5912 Fit       0.009764
 5913 Fit       0.008103
 5914 Fit       0.006511
 5915 Fit       0.023652
 5916 Fit       0.020276
 5917 Fit       0.017348
 5918 Fit       0.014781
 5919 Fit       0.012480
 5920 Fit       0.010361
 5921 Fit       0.008352
 5922 Fit       0.006394
 5923 Fit       0.004437
 5924 Fit       0.019245
 5925 Fit       0.015812
 5926 Fit       0.012894
 5927 Fit       0.010303
 5928 Fit       0.007892
 5929 Fit       0.005535
 5930 Fit       0.003116
 5931 Fit       0.017118
 5932 Fit       0.013331
 5933 Fit       0.010160
 5934 Fit       0.007312
 5935 Fit       0.004559
 5936 Fit       0.001693
 5937 Fit       0.010926
 5938 Fit       0.007261
 5939 Fit       0.003920
 5940 Fit       0.007206
 5941 Fit       0.006214
 5942 Fit       0.005514
 5943 Fit       0.005063
 5944 Fit       0.008926
 5945 Fit       0.007515
 5946 Fit       0.006413
 5947 Fit       0.005602
 5948 Fit       0.005037
 5949 Fit       0.004673
 5950 Fit       0.004494
 5951 Fit       0.004535
 5952 Fit       0.010039
 5953 Fit       0.008299
 5954 Fit       0.006882
 5955 Fit       0.005808
 5956 Fit       0.005044
 5957 Fit       0.004522
 5958 Fit       0.004184
 5959 Fit       0.003997
 5960 Fit       0.003968
 5961 Fit       0.004158
 5962 Fit       0.009332
 5963 Fit       0.007468
 5964 Fit       0.006018
 5965 Fit       0.004979
 5966 Fit       0.004275
 5967 Fit       0.003813
 5968 Fit       0.003519
 5969 Fit       0.003347
 5970 Fit       0.003286
 5971 Fit       0.003359
 5972 Fit       0.003628
 5973 Fit       0.007658
 5974 Fit       0.005693
 5975 Fit       0.004360
 5976 Fit       0.003517
 5977 Fit       0.003007
 5978 Fit       0.002708
 5979 Fit       0.002540
 5980 Fit       0.002462
 5981 Fit       0.002470
 5982 Fit       0.002588
 5983 Fit       0.002876
 5984 Fit       0.003301
 5985 Fit       0.002322
 5986 Fit       0.001800
 5987 Fit       0.001543
 5988 Fit       0.001433
 5989 Fit       0.001403
 5990 Fit       0.001426
 5991 Fit       0.001505
 5992 Fit       0.001668
 5993 Fit       0.001969
 5994 Fit       0.000618
 5995 Fit       0.000038
 5996 Fit      -0.000149
 5997 Fit      -0.000144
 5998 Fit      -0.000055
 5999 Fit       0.000063
 6000 Fit       0.000196
 6001 Fit       0.000354
 6002 Fit       0.000569
 6003 Fit       0.000893
 6004 Fit      -0.002893
 6005 Fit      -0.002677
 6006 Fit      -0.002326
 6007 Fit      -0.001960
 6008 Fit      -0.001627
 6009 Fit      -0.001335
 6010 Fit      -0.001061
 6011 Fit      -0.000766
 6012 Fit      -0.000387
 6013 Fit      -0.005468
 6014 Fit      -0.004584
 6015 Fit      -0.003868
 6016 Fit      -0.003296
 6017 Fit      -0.002823
 6018 Fit      -0.002386
 6019 Fit      -0.001903
 6020 Fit      -0.008195
 6021 Fit      -0.006828
 6022 Fit      -0.005803
 6023 Fit      -0.005013
 6024 Fit      -0.004353
 6025 Fit      -0.003705
 6026 Fit      -0.011675
 6027 Fit      -0.009581
 6028 Fit      -0.008092
 6029 Fit      -0.006974
 6030 Fit      -0.012394
 6031 Fit      -0.010442
 6032 Fit       0.004211
 6033 Fit       0.005199
 6034 Fit       0.006239
 6035 Fit       0.007410
 6036 Fit       0.008834
 6037 Fit       0.002247
 6038 Fit       0.003230
 6039 Fit       0.003355
 6040 Fit       0.004431
 6041 Fit       0.005594
 6042 Fit       0.006929
 6043 Fit       0.008555
 6044 Fit       0.010634
 6045 Fit       0.013366
 6046 Fit       0.016981
 6047 Fit       0.000230
 6048 Fit       0.001270
 6049 Fit       0.002310
 6050 Fit       0.002383
 6051 Fit       0.003569
 6052 Fit       0.004875
 6053 Fit       0.006410
 6054 Fit       0.008333
 6055 Fit       0.010864
 6056 Fit       0.014303
 6057 Fit       0.019045
 6058 Fit      -0.002258
 6059 Fit      -0.001060
 6060 Fit       0.000104
 6061 Fit       0.001243
 6062 Fit       0.001148
 6063 Fit       0.002439
 6064 Fit       0.003887
 6065 Fit       0.005646
 6066 Fit       0.007953
 6067 Fit       0.011166
 6068 Fit       0.015839
 6069 Fit      -0.004088
 6070 Fit      -0.002667
 6071 Fit      -0.001347
 6072 Fit      -0.000091
 6073 Fit      -0.000527
 6074 Fit       0.000810
 6075 Fit       0.002326
 6076 Fit       0.004234
 6077 Fit       0.006880
 6078 Fit       0.010851
 6079 Fit      -0.008231
 6080 Fit      -0.006294
 6081 Fit      -0.004634
 6082 Fit      -0.003166
 6083 Fit      -0.001821
 6084 Fit      -0.002881
 6085 Fit      -0.001517
 6086 Fit       0.000050
 6087 Fit       0.002170
 6088 Fit      -0.012321
 6089 Fit      -0.009644
 6090 Fit      -0.007510
 6091 Fit      -0.005753
 6092 Fit      -0.004247
 6093 Fit      -0.006292
 6094 Fit      -0.005148
 6095 Fit      -0.011344
 6096 Fit      -0.009232
 6097 Fit      -0.007599
 6098 Fit       0.027462
 6099 Fit       0.028171
 6100 Fit       0.021919
 6101 Fit       0.023158
 6102 Fit       0.024217
 6103 Fit       0.025018
 6104 Fit       0.025551
 6105 Fit       0.025851
 6106 Fit       0.025985
 6107 Fit       0.018416
 6108 Fit       0.019771
 6109 Fit       0.020916
 6110 Fit       0.021789
 6111 Fit       0.022371
 6112 Fit       0.022668
 6113 Fit       0.022708
 6114 Fit       0.022533
 6115 Fit       0.022190
 6116 Fit       0.012485
 6117 Fit       0.014227
 6118 Fit       0.015780
 6119 Fit       0.017071
 6120 Fit       0.018059
 6121 Fit       0.018728
 6122 Fit       0.019080
 6123 Fit       0.019129
 6124 Fit       0.018896
 6125 Fit       0.018407
 6126 Fit       0.017684
 6127 Fit       0.016733
 6128 Fit       0.009418
 6129 Fit       0.011239
 6130 Fit       0.012718
 6131 Fit       0.013834
 6132 Fit       0.014582
 6133 Fit       0.014968
 6134 Fit       0.015004
 6135 Fit       0.014708
 6136 Fit       0.014102
 6137 Fit       0.013203
 6138 Fit       0.012024
 6139 Fit       0.010561
 6140 Fit       0.009183
 6141 Fit       0.009922
 6142 Fit       0.010212
 6143 Fit       0.010074
 6144 Fit       0.009530
 6145 Fit       0.008605
 -----------------------------------------------------------------
 Leave Link  602 at Sat Aug 28 13:24:20 2021, MaxMem=  1342177280 cpu:               0.6 elap:               0.1

 Test job not archived.
 1\1\GINC-CHENG-2060\FOpt\RB3LYP\6-31G(d)\C9H12O1\CHENG\28-Aug-2021\0\\
 # opt b3lyp/6-31g(d) scrf=(smd,solvent=water) nosymm pop=mk geom=conne
 ctivity iop(6/33=2,6/42=6)\\Title Card Required\\0,1\C,24.2664864804,-
 23.9655611503,0.0674211588\C,21.450803133,-27.2440737173,-4.2433633074
 \C,21.9208739978,-26.7504086997,-5.4627283103\C,22.6010380037,-25.5343
 43552,-5.5057096642\C,22.8182550965,-24.8110047658,-4.3285179062\C,21.
 6736451501,-26.5104991549,-3.0766536295\C,22.3572628779,-25.2864114596
 ,-3.0853247542\C,22.6144656511,-24.5353459545,-1.7956048208\C,24.04004
 64753,-24.7293197741,-1.2384898297\O,23.5035514841,-23.6184089635,-4.4
 641400742\H,25.2822800588,-24.1231932061,0.4482676938\H,24.1263935568,
 -22.886669922,-0.074607853\H,23.5637365764,-24.2925096942,0.8440093072
 \H,20.9149755932,-28.187925966,-4.2001368916\H,21.7565191747,-27.30596
 37569,-6.382034615\H,22.9708478361,-25.1294236618,-6.4434024304\H,21.3
 072876599,-26.8887052378,-2.1247367415\H,21.8907640114,-24.8722415927,
 -1.0439629031\H,22.426945913,-23.4591077046,-1.9283433092\H,24.2143669
 59,-25.8013422169,-1.0792118926\H,24.7715275056,-24.4039930007,-1.9902
 033732\H,23.5459126453,-23.1632054586,-3.6070274835\\Version=ES64L-G16
 RevC.01\HF=-425.4165572\RMSD=9.679e-09\RMSF=1.282e-05\Dipole=-0.058231
 1,0.1862524,0.930037\Quadrupole=4.0621659,-4.5701587,0.5079928,12.8357
 567,40.9796479,-42.5527529\PG=C01 [X(C9H12O1)]\\@


 THE WORLD OF CHEMICAL REACTIONS IS LIKE A STAGE,
 ON WHICH SCENE AFTER SCENE IS CEASELESSLY PLAYED.
 THE ACTORS ON IT ARE THE ELEMENTS.
   -- CLEMENS WINKLER   BER. 30,13(1897)
 (DISCOVERER OF GERMANIUM, FEB 6, 1886)
 Job cpu time:       0 days  0 hours 13 minutes 34.6 seconds.
 Elapsed time:       0 days  0 hours  2 minutes 23.9 seconds.
 File lengths (MBytes):  RWF=    105 Int=      0 D2E=      0 Chk=      6 Scr=      1
 Normal termination of Gaussian 16 at Sat Aug 28 13:24:20 2021.
